 Set GAUSS_PDEF to "8".
 Entering Gaussian System, Link 0=g16
 Initial command:
 /leonardo/prod/opt/applications/g16/c02/binary/g16/l1.exe "/leonardo_scratch/large/userexternal/morza000/g16_32713343/Gau-2202476.inp" -scrdir="/leonardo_scratch/large/userexternal/morza000/g16_32713343/"
 Default is to use a total of   8 processors:
                                8 via shared-memory
                                1 via Linda
 Entering Link 1 = /leonardo/prod/opt/applications/g16/c02/binary/g16/l1.exe PID=   2202477.
  
 Copyright (c) 1988-2021, Gaussian, Inc.  All Rights Reserved.
  
 This is part of the Gaussian(R) 16 program.  It is based on
 the Gaussian(R) 09 system (copyright 2009, Gaussian, Inc.),
 the Gaussian(R) 03 system (copyright 2003, Gaussian, Inc.),
 the Gaussian(R) 98 system (copyright 1998, Gaussian, Inc.),
 the Gaussian(R) 94 system (copyright 1995, Gaussian, Inc.),
 the Gaussian 92(TM) system (copyright 1992, Gaussian, Inc.),
 the Gaussian 90(TM) system (copyright 1990, Gaussian, Inc.),
 the Gaussian 88(TM) system (copyright 1988, Gaussian, Inc.),
 the Gaussian 86(TM) system (copyright 1986, Carnegie Mellon
 University), and the Gaussian 82(TM) system (copyright 1983,
 Carnegie Mellon University). Gaussian is a federally registered
 trademark of Gaussian, Inc.
  
 This software contains proprietary and confidential information,
 including trade secrets, belonging to Gaussian, Inc.
  
 This software is provided under written license and may be
 used, copied, transmitted, or stored only in accord with that
 written license.
  
 The following legend is applicable only to US Government
 contracts under FAR:
  
                    RESTRICTED RIGHTS LEGEND
  
 Use, reproduction and disclosure by the US Government is
 subject to restrictions as set forth in subparagraphs (a)
 and (c) of the Commercial Computer Software - Restricted
 Rights clause in FAR 52.227-19.
  
 Gaussian, Inc.
 340 Quinnipiac St., Bldg. 40, Wallingford CT 06492
  
  
 ---------------------------------------------------------------
 Warning -- This program may not be used in any manner that
 competes with the business of Gaussian, Inc. or will provide
 assistance to any competitor of Gaussian, Inc.  The licensee
 of this program is prohibited from giving any competitor of
 Gaussian, Inc. access to this program.  By using this program,
 the user acknowledges that Gaussian, Inc. is engaged in the
 business of creating and licensing software in the field of
 computational chemistry and represents and warrants to the
 licensee that it is not a competitor of Gaussian, Inc. and that
 it will not use this program in any manner prohibited above.
 ---------------------------------------------------------------
  

 Cite this work as:
 Gaussian 16, Revision C.02,
 M. J. Frisch, G. W. Trucks, H. B. Schlegel, G. E. Scuseria, 
 M. A. Robb, J. R. Cheeseman, G. Scalmani, V. Barone, 
 G. A. Petersson, H. Nakatsuji, X. Li, M. Caricato, A. V. Marenich, 
 J. Bloino, B. G. Janesko, R. Gomperts, B. Mennucci, H. P. Hratchian, 
 J. V. Ortiz, A. F. Izmaylov, J. L. Sonnenberg, D. Williams-Young, 
 F. Ding, F. Lipparini, F. Egidi, J. Goings, B. Peng, A. Petrone, 
 T. Henderson, D. Ranasinghe, V. G. Zakrzewski, J. Gao, N. Rega, 
 G. Zheng, W. Liang, M. Hada, M. Ehara, K. Toyota, R. Fukuda, 
 J. Hasegawa, M. Ishida, T. Nakajima, Y. Honda, O. Kitao, H. Nakai, 
 T. Vreven, K. Throssell, J. A. Montgomery, Jr., J. E. Peralta, 
 F. Ogliaro, M. J. Bearpark, J. J. Heyd, E. N. Brothers, K. N. Kudin, 
 V. N. Staroverov, T. A. Keith, R. Kobayashi, J. Normand, 
 K. Raghavachari, A. P. Rendell, J. C. Burant, S. S. Iyengar, 
 J. Tomasi, M. Cossi, J. M. Millam, M. Klene, C. Adamo, R. Cammi, 
 J. W. Ochterski, R. L. Martin, K. Morokuma, O. Farkas, 
 J. B. Foresman, and D. J. Fox, Gaussian, Inc., Wallingford CT, 2019.
 
 ******************************************
 Gaussian 16:  ES64L-G16RevC.02  7-Dec-2021
                22-Jan-2026 
 ******************************************
 %nprocshared=12
 Will use up to   12 processors via shared memory.
 %mem=12GB
 %oldchk=optdft.chk
 %chk=freq_1.chk
 Copying data from "optdft.chk" to current chk file "freq_1.chk"
 IOpt=  2 FromEx=T IUOpen= 4 IOptOp= 5 NList=   0 IFRang= 0 IUIn= 4 IUOut= 2.
 ----------------------------------------------------------------------
 #p freq M062X def2SVP empiricaldispersion=GD3 SCRF(solvent=water) gues
 s=read geom=check
 ----------------------------------------------------------------------
 1/10=4,29=2,30=1,38=1/1,3;
 2/12=2,40=1/2;
 3/5=43,7=101,11=2,14=-4,25=1,30=1,70=2201,71=2,72=1,74=-55,116=-2,124=31,140=1/1,2,3;
 4/5=1/1;
 5/5=2,38=6,53=1,98=1/2;
 8/6=4,10=90,11=11/1;
 11/6=1,8=1,9=11,15=111,16=1/1,2,10;
 10/6=1/2;
 6/7=2,8=2,9=2,10=2,28=1/1;
 7/8=1,10=1,25=1/1,2,3,16;
 1/10=4,30=1/3;
 99//99;
 Leave Link    1 at Thu Jan 22 16:53:59 2026, MaxMem=  1610612736 cpu:               0.4 elap:               0.8
 (Enter /leonardo/prod/opt/applications/g16/c02/binary/g16/l101.exe)
 ------
 titolo
 ------
 Structure from the checkpoint file:  "freq_1.chk"
 Charge =  1 Multiplicity = 2
 Redundant internal coordinates found in file.  (old form).
 C,0,0.0588849627,0.1346446985,0.0071748596
 C,0,-0.0190011902,-0.559206119,1.2426102661
 C,0,-0.0066589188,-0.6250866668,-1.1896090649
 C,0,-0.1468623826,-1.9399237078,1.2106161942
 H,0,0.0479407712,-0.0469961843,2.2000009653
 N,0,0.1926127452,1.4898967373,-0.0288570079
 C,0,-0.1507879248,-2.0005540354,-1.0843298089
 H,0,0.0227870689,-0.1607829921,-2.1729682019
 N,0,-0.2159782484,-2.6506232587,0.0812297992
 H,0,-0.1943074452,-2.4968901519,2.1490122685
 C,0,0.0604120646,2.2989476307,1.1729017113
 C,0,0.4740640076,2.1931653703,-1.2708029198
 H,0,-0.2179098508,-2.60465245,-1.9918594212
 H,0,1.0204734106,2.2982926315,1.7141037689
 H,0,-0.1806552472,3.323541806,0.8760264
 H,0,-0.7298753845,1.9027568101,1.8171603469
 H,0,-0.470457784,2.3518375983,-1.8160775914
 H,0,1.16816786,1.6167766746,-1.8893386887
 H,0,0.9124058625,3.1649983437,-1.0269938807
 Recover connectivity data from disk.
 ITRead=  0  0  0  0  0  0  0  0  0  0  0  0  0  0  0  0  0  0  0
 MicOpt= -1 -1 -1 -1 -1 -1 -1 -1 -1 -1 -1 -1 -1 -1 -1 -1 -1 -1 -1
 NAtoms=     19 NQM=       19 NQMF=       0 NMMI=      0 NMMIF=      0
                NMic=       0 NMicF=      0.
                    Isotopes and Nuclear Properties:
 (Nuclear quadrupole moments (NQMom) in fm**2, nuclear magnetic moments (NMagM)
  in nuclear magnetons)

  Atom         1           2           3           4           5           6           7           8           9          10
 IAtWgt=          12          12          12          12           1          14          12           1          14           1
 AtmWgt=  12.0000000  12.0000000  12.0000000  12.0000000   1.0078250  14.0030740  12.0000000   1.0078250  14.0030740   1.0078250
 NucSpn=           0           0           0           0           1           2           0           1           2           1
 AtZEff=   3.6000000   3.6000000   3.6000000   3.6000000   1.0000000   4.5500000   3.6000000   1.0000000   4.5500000   1.0000000
 NQMom=    0.0000000   0.0000000   0.0000000   0.0000000   0.0000000   2.0440000   0.0000000   0.0000000   2.0440000   0.0000000
 NMagM=    0.0000000   0.0000000   0.0000000   0.0000000   2.7928460   0.4037610   0.0000000   2.7928460   0.4037610   2.7928460
 AtZNuc=   6.0000000   6.0000000   6.0000000   6.0000000   1.0000000   7.0000000   6.0000000   1.0000000   7.0000000   1.0000000

  Atom        11          12          13          14          15          16          17          18          19
 IAtWgt=          12          12           1           1           1           1           1           1           1
 AtmWgt=  12.0000000  12.0000000   1.0078250   1.0078250   1.0078250   1.0078250   1.0078250   1.0078250   1.0078250
 NucSpn=           0           0           1           1           1           1           1           1           1
 AtZEff=   3.6000000   3.6000000   1.0000000   1.0000000   1.0000000   1.0000000   1.0000000   1.0000000   1.0000000
 NQMom=    0.0000000   0.0000000   0.0000000   0.0000000   0.0000000   0.0000000   0.0000000   0.0000000   0.0000000
 NMagM=    0.0000000   0.0000000   2.7928460   2.7928460   2.7928460   2.7928460   2.7928460   2.7928460   2.7928460
 AtZNuc=   6.0000000   6.0000000   1.0000000   1.0000000   1.0000000   1.0000000   1.0000000   1.0000000   1.0000000
 Leave Link  101 at Thu Jan 22 16:54:00 2026, MaxMem=  1610612736 cpu:               0.4 elap:               0.5
 (Enter /leonardo/prod/opt/applications/g16/c02/binary/g16/l103.exe)

 GradGradGradGradGradGradGradGradGradGradGradGradGradGradGradGradGradGrad
 Berny optimization.
 Initialization pass.
                           ----------------------------
                           !    Initial Parameters    !
                           ! (Angstroms and Degrees)  !
 --------------------------                            --------------------------
 ! Name  Definition              Value          Derivative Info.                !
 --------------------------------------------------------------------------------
 ! R1    R(1,2)                  1.4191         calculate D2E/DX2 analytically  !
 ! R2    R(1,3)                  1.4191         calculate D2E/DX2 analytically  !
 ! R3    R(1,6)                  1.3623         calculate D2E/DX2 analytically  !
 ! R4    R(2,4)                  1.387          calculate D2E/DX2 analytically  !
 ! R5    R(2,5)                  1.0879         calculate D2E/DX2 analytically  !
 ! R6    R(3,7)                  1.387          calculate D2E/DX2 analytically  !
 ! R7    R(3,8)                  1.0879         calculate D2E/DX2 analytically  !
 ! R8    R(4,9)                  1.3362         calculate D2E/DX2 analytically  !
 ! R9    R(4,10)                 1.0923         calculate D2E/DX2 analytically  !
 ! R10   R(6,11)                 1.4547         calculate D2E/DX2 analytically  !
 ! R11   R(6,12)                 1.4547         calculate D2E/DX2 analytically  !
 ! R12   R(7,9)                  1.3362         calculate D2E/DX2 analytically  !
 ! R13   R(7,13)                 1.0923         calculate D2E/DX2 analytically  !
 ! R14   R(11,14)                1.1021         calculate D2E/DX2 analytically  !
 ! R15   R(11,15)                1.0936         calculate D2E/DX2 analytically  !
 ! R16   R(11,16)                1.0939         calculate D2E/DX2 analytically  !
 ! R17   R(12,17)                1.1021         calculate D2E/DX2 analytically  !
 ! R18   R(12,18)                1.0939         calculate D2E/DX2 analytically  !
 ! R19   R(12,19)                1.0936         calculate D2E/DX2 analytically  !
 ! A1    A(2,1,3)              118.0286         calculate D2E/DX2 analytically  !
 ! A2    A(2,1,6)              120.9857         calculate D2E/DX2 analytically  !
 ! A3    A(3,1,6)              120.9857         calculate D2E/DX2 analytically  !
 ! A4    A(1,2,4)              118.1452         calculate D2E/DX2 analytically  !
 ! A5    A(1,2,5)              122.1802         calculate D2E/DX2 analytically  !
 ! A6    A(4,2,5)              119.649          calculate D2E/DX2 analytically  !
 ! A7    A(1,3,7)              118.145          calculate D2E/DX2 analytically  !
 ! A8    A(1,3,8)              122.1807         calculate D2E/DX2 analytically  !
 ! A9    A(7,3,8)              119.6487         calculate D2E/DX2 analytically  !
 ! A10   A(2,4,9)              123.6244         calculate D2E/DX2 analytically  !
 ! A11   A(2,4,10)             119.4587         calculate D2E/DX2 analytically  !
 ! A12   A(9,4,10)             116.9168         calculate D2E/DX2 analytically  !
 ! A13   A(1,6,11)             121.4999         calculate D2E/DX2 analytically  !
 ! A14   A(1,6,12)             121.5004         calculate D2E/DX2 analytically  !
 ! A15   A(11,6,12)            116.9997         calculate D2E/DX2 analytically  !
 ! A16   A(3,7,9)              123.6247         calculate D2E/DX2 analytically  !
 ! A17   A(3,7,13)             119.4582         calculate D2E/DX2 analytically  !
 ! A18   A(9,7,13)             116.917          calculate D2E/DX2 analytically  !
 ! A19   A(4,9,7)              118.4251         calculate D2E/DX2 analytically  !
 ! A20   A(6,11,14)            109.0367         calculate D2E/DX2 analytically  !
 ! A21   A(6,11,15)            108.4707         calculate D2E/DX2 analytically  !
 ! A22   A(6,11,16)            110.5342         calculate D2E/DX2 analytically  !
 ! A23   A(14,11,15)           109.0188         calculate D2E/DX2 analytically  !
 ! A24   A(14,11,16)           109.8717         calculate D2E/DX2 analytically  !
 ! A25   A(15,11,16)           109.8738         calculate D2E/DX2 analytically  !
 ! A26   A(6,12,17)            109.0373         calculate D2E/DX2 analytically  !
 ! A27   A(6,12,18)            110.5346         calculate D2E/DX2 analytically  !
 ! A28   A(6,12,19)            108.4704         calculate D2E/DX2 analytically  !
 ! A29   A(17,12,18)           109.8711         calculate D2E/DX2 analytically  !
 ! A30   A(17,12,19)           109.0179         calculate D2E/DX2 analytically  !
 ! A31   A(18,12,19)           109.8746         calculate D2E/DX2 analytically  !
 ! D1    D(3,1,2,4)              0.3659         calculate D2E/DX2 analytically  !
 ! D2    D(3,1,2,5)            178.5187         calculate D2E/DX2 analytically  !
 ! D3    D(6,1,2,4)           -179.6341         calculate D2E/DX2 analytically  !
 ! D4    D(6,1,2,5)             -1.4813         calculate D2E/DX2 analytically  !
 ! D5    D(2,1,3,7)              0.3671         calculate D2E/DX2 analytically  !
 ! D6    D(2,1,3,8)            178.5207         calculate D2E/DX2 analytically  !
 ! D7    D(6,1,3,7)           -179.6329         calculate D2E/DX2 analytically  !
 ! D8    D(6,1,3,8)             -1.4794         calculate D2E/DX2 analytically  !
 ! D9    D(2,1,6,11)            -9.3531         calculate D2E/DX2 analytically  !
 ! D10   D(2,1,6,12)           170.6457         calculate D2E/DX2 analytically  !
 ! D11   D(3,1,6,11)           170.647          calculate D2E/DX2 analytically  !
 ! D12   D(3,1,6,12)            -9.3543         calculate D2E/DX2 analytically  !
 ! D13   D(1,2,4,9)             -0.7909         calculate D2E/DX2 analytically  !
 ! D14   D(1,2,4,10)           179.1305         calculate D2E/DX2 analytically  !
 ! D15   D(5,2,4,9)           -178.992          calculate D2E/DX2 analytically  !
 ! D16   D(5,2,4,10)             0.9294         calculate D2E/DX2 analytically  !
 ! D17   D(1,3,7,9)             -0.7905         calculate D2E/DX2 analytically  !
 ! D18   D(1,3,7,13)           179.1305         calculate D2E/DX2 analytically  !
 ! D19   D(8,3,7,9)           -178.9922         calculate D2E/DX2 analytically  !
 ! D20   D(8,3,7,13)             0.9287         calculate D2E/DX2 analytically  !
 ! D21   D(2,4,9,7)              0.4124         calculate D2E/DX2 analytically  !
 ! D22   D(10,4,9,7)          -179.5109         calculate D2E/DX2 analytically  !
 ! D23   D(1,6,11,14)           82.981          calculate D2E/DX2 analytically  !
 ! D24   D(1,6,11,15)         -158.4178         calculate D2E/DX2 analytically  !
 ! D25   D(1,6,11,16)          -37.8974         calculate D2E/DX2 analytically  !
 ! D26   D(12,6,11,14)         -97.0178         calculate D2E/DX2 analytically  !
 ! D27   D(12,6,11,15)          21.5834         calculate D2E/DX2 analytically  !
 ! D28   D(12,6,11,16)         142.1038         calculate D2E/DX2 analytically  !
 ! D29   D(1,6,12,17)           82.9986         calculate D2E/DX2 analytically  !
 ! D30   D(1,6,12,18)          -37.8798         calculate D2E/DX2 analytically  !
 ! D31   D(1,6,12,19)         -158.4012         calculate D2E/DX2 analytically  !
 ! D32   D(11,6,12,17)         -97.0026         calculate D2E/DX2 analytically  !
 ! D33   D(11,6,12,18)         142.119          calculate D2E/DX2 analytically  !
 ! D34   D(11,6,12,19)          21.5976         calculate D2E/DX2 analytically  !
 ! D35   D(3,7,9,4)              0.4103         calculate D2E/DX2 analytically  !
 ! D36   D(13,7,9,4)          -179.5125         calculate D2E/DX2 analytically  !
 --------------------------------------------------------------------------------
 Trust Radius=3.00D-01 FncErr=1.00D-07 GrdErr=1.00D-07 EigMax=2.50D+02 EigMin=1.00D-04
 Number of steps in this run=      2 maximum allowed number of steps=      2.
 GradGradGradGradGradGradGradGradGradGradGradGradGradGradGradGradGradGrad

 Leave Link  103 at Thu Jan 22 16:54:00 2026, MaxMem=  1610612736 cpu:               0.2 elap:               0.1
 (Enter /leonardo/prod/opt/applications/g16/c02/binary/g16/l202.exe)
                          Input orientation:                          
 ---------------------------------------------------------------------
 Center     Atomic      Atomic             Coordinates (Angstroms)
 Number     Number       Type             X           Y           Z
 ---------------------------------------------------------------------
      1          6           0        0.058885    0.134645    0.007175
      2          6           0       -0.019001   -0.559206    1.242610
      3          6           0       -0.006659   -0.625087   -1.189609
      4          6           0       -0.146862   -1.939924    1.210616
      5          1           0        0.047941   -0.046996    2.200001
      6          7           0        0.192613    1.489897   -0.028857
      7          6           0       -0.150788   -2.000554   -1.084330
      8          1           0        0.022787   -0.160783   -2.172968
      9          7           0       -0.215978   -2.650623    0.081230
     10          1           0       -0.194307   -2.496890    2.149012
     11          6           0        0.060412    2.298948    1.172902
     12          6           0        0.474064    2.193165   -1.270803
     13          1           0       -0.217910   -2.604652   -1.991859
     14          1           0        1.020473    2.298293    1.714104
     15          1           0       -0.180655    3.323542    0.876026
     16          1           0       -0.729875    1.902757    1.817160
     17          1           0       -0.470458    2.351838   -1.816078
     18          1           0        1.168168    1.616777   -1.889339
     19          1           0        0.912406    3.164998   -1.026994
 ---------------------------------------------------------------------
                    Distance matrix (angstroms):
                    1          2          3          4          5
     1  C    0.000000
     2  C    1.419083   0.000000
     3  C    1.419077   2.433143   0.000000
     4  C    2.407164   1.386994   2.740353   0.000000
     5  H    2.200363   1.087859   3.438986   2.144762   0.000000
     6  N    1.362310   2.420792   2.420787   3.662677   2.711232
     7  C    2.407160   2.740347   1.386999   2.295750   3.826579
     8  H    2.200365   3.438992   1.087860   3.826587   4.374522
     9  N    2.799777   2.400340   2.400343   1.336183   3.367153
    10  H    3.402433   2.146373   3.832134   1.092268   2.462370
    11  C    2.458278   2.860106   3.759778   4.244104   2.560965
    12  C    2.458273   3.759775   2.860110   4.860598   4.152877
    13  H    3.402426   3.832129   2.146372   3.271508   4.917721
    14  H    2.918841   3.077030   4.246492   4.424777   2.585014
    15  H    3.313812   3.903364   4.459685   5.274198   3.628456
    16  H    2.650361   2.626159   3.994208   3.933700   2.133800
    17  H    2.918972   4.246594   3.077280   5.261635   4.706594
    18  H    2.650281   3.994168   2.625984   4.897871   4.554750
    19  H    3.313766   4.459632   3.903315   5.673551   4.634404
                    6          7          8          9         10
     6  N    0.000000
     7  C    3.662676   0.000000
     8  H    2.711235   2.144766   0.000000
     9  N    4.162087   1.336177   3.367153   0.000000
    10  H    4.559308   3.271505   4.917727   2.073603   0.000000
    11  C    1.454739   4.860598   4.152895   5.076061   4.900789
    12  C    1.454727   4.244113   2.560981   5.076065   5.842814
    13  H    4.559303   1.092268   2.462363   2.073600   4.142341
    14  H    2.092073   5.261479   4.706566   5.356011   4.965744
    15  H    2.078557   5.673613   4.634466   6.026906   5.958029
    16  H    2.104571   4.897941   4.554758   4.900083   4.444531
    17  H    2.092071   4.425037   2.585329   5.356225   6.269638
    18  H    2.104566   3.933544   2.133556   4.899970   5.923417
    19  H    2.078544   5.274144   3.628429   6.026845   6.585500
                   11         12         13         14         15
    11  C    0.000000
    12  C    2.480724   0.000000
    13  H    5.842814   4.900796   0.000000
    14  H    1.102097   3.036327   6.269500   0.000000
    15  H    1.093637   2.513023   6.585563   1.787797   0.000000
    16  H    1.093888   3.327059   5.923468   1.797440   1.790532
    17  H    3.036218   1.102099   4.966032   3.832483   2.876737
    18  H    3.327130   1.093888   4.444343   3.670296   3.518468
    19  H    2.513061   1.093639   5.957974   2.876886   2.200319
                   16         17         18         19
    16  H    0.000000
    17  H    3.670067   0.000000
    18  H    4.174025   1.797436   0.000000
    19  H    3.518459   1.787791   1.790543   0.000000
 Stoichiometry    C7H10N2(1+,2)
 Framework group  C1[X(C7H10N2)]
 Deg. of freedom    51
 Full point group                 C1      NOp   1
 RotChk:  IX=1 Diff= 1.41D-15
 Largest Abelian subgroup         C1      NOp   1
 Largest concise Abelian subgroup C1      NOp   1
                         Standard orientation:                         
 ---------------------------------------------------------------------
 Center     Atomic      Atomic             Coordinates (Angstroms)
 Number     Number       Type             X           Y           Z
 ---------------------------------------------------------------------
      1          6           0       -0.162217    0.000005    0.000001
      2          6           0        0.568360   -1.214654    0.068233
      3          6           0        0.568359    1.214659   -0.068222
      4          6           0        1.953629   -1.145605    0.072186
      5          1           0        0.077554   -2.182349    0.146425
      6          7           0       -1.524527    0.000005   -0.000008
      7          6           0        1.953632    1.145601   -0.072183
      8          1           0        0.077562    2.182362   -0.146389
      9          7           0        2.637560   -0.000001   -0.000011
     10          1           0        2.537186   -2.066534    0.138533
     11          6           0       -2.284623   -1.233253   -0.132640
     12          6           0       -2.284629    1.233246    0.132639
     13          1           0        2.537187    2.066531   -0.138523
     14          1           0       -2.363906   -1.714700    0.855561
     15          1           0       -3.288095   -0.985091   -0.489714
     16          1           0       -1.795864   -1.911196   -0.838401
     17          1           0       -2.364178    1.714561   -0.855607
     18          1           0       -1.795726    1.911310    0.838184
     19          1           0       -3.288010    0.985088    0.489979
 ---------------------------------------------------------------------
 Rotational constants (GHZ):           3.5848062           1.2302156           0.9297742
 Leave Link  202 at Thu Jan 22 16:54:01 2026, MaxMem=  1610612736 cpu:               0.2 elap:               0.1
 (Enter /leonardo/prod/opt/applications/g16/c02/binary/g16/l301.exe)
 Standard basis: def2SVP (5D, 7F)
 Ernie: Thresh=  0.10000D-02 Tol=  0.10000D-05 Strict=F.
 There are   185 symmetry adapted cartesian basis functions of A   symmetry.
 There are   176 symmetry adapted basis functions of A   symmetry.
   176 basis functions,   295 primitive gaussians,   185 cartesian basis functions
    33 alpha electrons       32 beta electrons
       nuclear repulsion energy       432.4355572686 Hartrees.
 IExCor= 4336 DFT=T Ex+Corr=M062X ExCW=0 ScaHFX=  0.540000
 ScaDFX=  1.000000  1.000000  1.000000  1.000000 ScalE2=  1.000000  1.000000
 IRadAn=      5 IRanWt=     -1 IRanGd=            0 ICorTp=0 IEmpDi=131
 NAtoms=   19 NActive=   19 NUniq=   19 SFac= 1.00D+00 NAtFMM=   60 NAOKFM=F Big=F
 Integral buffers will be    131072 words long.
 Raffenetti 2 integral format.
 Two-electron integral symmetry is turned on.
 R6Disp:  Grimme-D3 Dispersion energy=       -0.0005467594 Hartrees.
 Nuclear repulsion after empirical dispersion term =      432.4350105091 Hartrees.
 Force inversion solution in PCM.
 ------------------------------------------------------------------------------
 Polarizable Continuum Model (PCM)
 =================================
 Model                : PCM.
 Atomic radii         : UFF (Universal Force Field).
 Polarization charges : Total charges.
 Charge compensation  : None.
 Solution method      : Matrix inversion.
 Cavity type          : Scaled VdW (van der Waals Surface) (Alpha=1.100).
 Cavity algorithm     : GePol (No added spheres)
                        Default sphere list used, NSphG=   19.
                        Lebedev-Laikov grids with approx.  5.0 points / Ang**2.
                        Smoothing algorithm: York/Karplus (Gamma=1.0000).
                        Polarization charges: spherical gaussians, with
                                              point-specific exponents (IZeta= 3).
                        Self-potential: point-specific (ISelfS= 7).
                        Self-field    : sphere-specific E.n sum rule (ISelfD= 2).
 1st derivatives      : Analytical E(r).r(x)/FMM algorithm (CHGder, D1EAlg=3).
                        Cavity 1st derivative terms included.
 2nd derivatives      : Analytical E(r).r(xy)/FMM algorithm (CHGder, D2EAlg=3).
                        Cavity 2nd derivative terms included.
 Solvent              : Water, Eps=  78.355300 Eps(inf)=   1.777849
 ------------------------------------------------------------------------------
 Spheres list:
 ISph  on   Nord     Re0    Alpha      Xe            Ye            Ze
    1   C      1    1.9255  1.100     -0.162217      0.000005      0.000001
    2   C      2    1.9255  1.100      0.568360     -1.214654      0.068233
    3   C      3    1.9255  1.100      0.568359      1.214659     -0.068222
    4   C      4    1.9255  1.100      1.953629     -1.145605      0.072186
    5   H      5    1.4430  1.100      0.077554     -2.182349      0.146425
    6   N      6    1.8300  1.100     -1.524527      0.000005     -0.000008
    7   C      7    1.9255  1.100      1.953632      1.145601     -0.072183
    8   H      8    1.4430  1.100      0.077562      2.182362     -0.146389
    9   N      9    1.8300  1.100      2.637560     -0.000001     -0.000011
   10   H     10    1.4430  1.100      2.537186     -2.066534      0.138533
   11   C     11    1.9255  1.100     -2.284623     -1.233253     -0.132640
   12   C     12    1.9255  1.100     -2.284629      1.233246      0.132639
   13   H     13    1.4430  1.100      2.537187      2.066531     -0.138523
   14   H     14    1.4430  1.100     -2.363906     -1.714700      0.855561
   15   H     15    1.4430  1.100     -3.288095     -0.985091     -0.489714
   16   H     16    1.4430  1.100     -1.795864     -1.911196     -0.838401
   17   H     17    1.4430  1.100     -2.364178      1.714561     -0.855607
   18   H     18    1.4430  1.100     -1.795726      1.911310      0.838184
   19   H     19    1.4430  1.100     -3.288010      0.985088      0.489979
 ------------------------------------------------------------------------------
 GePol: Number of generator spheres                  =      19
 GePol: Total number of spheres                      =      19
 GePol: Number of exposed spheres                    =      19 (100.00%)
 GePol: Number of points                             =    1473
 GePol: Average weight of points                     =       0.13
 GePol: Minimum weight of points                     =   0.17D-07
 GePol: Maximum weight of points                     =    0.20577
 GePol: Number of points with low weight             =      88
 GePol: Fraction of low-weight points (<1% of avg)   =       5.97%
 GePol: Cavity surface area                          =    194.179 Ang**2
 GePol: Cavity volume                                =    194.963 Ang**3
 Leave Link  301 at Thu Jan 22 16:54:01 2026, MaxMem=  1610612736 cpu:               0.3 elap:               0.2
 (Enter /leonardo/prod/opt/applications/g16/c02/binary/g16/l302.exe)
 NPDir=0 NMtPBC=     1 NCelOv=     1 NCel=       1 NClECP=     1 NCelD=      1
         NCelK=      1 NCelE2=     1 NClLst=     1 CellRange=     0.0.
 One-electron integrals computed using PRISM.
 One-electron integral symmetry used in STVInt
   1 Symmetry operations used in ECPInt.
 ECPInt:  NShTT=    3570 NPrTT=   12708 LenC2=    3537 LenP2D=   10017.
 LDataN:  DoStor=T MaxTD1= 4 Len=   56
 NBasis=   176 RedAO= T EigKep=  6.79D-04  NBF=   176
 NBsUse=   176 1.00D-06 EigRej= -1.00D+00 NBFU=   176
 Precomputing XC quadrature grid using
 IXCGrd= 4 IRadAn=           5 IRanWt=          -1 IRanGd=           0 AccXCQ= 0.00D+00.
 Generated NRdTot=       0 NPtTot=           0 NUsed=           0 NTot=          32
 NSgBfM=   185   185   185   185   185 MxSgAt=    19 MxSgA2=    19.
 Leave Link  302 at Thu Jan 22 16:54:02 2026, MaxMem=  1610612736 cpu:               1.0 elap:               0.3
 (Enter /leonardo/prod/opt/applications/g16/c02/binary/g16/l303.exe)
 DipDrv:  MaxL=1.
 Leave Link  303 at Thu Jan 22 16:54:02 2026, MaxMem=  1610612736 cpu:               0.4 elap:               0.2
 (Enter /leonardo/prod/opt/applications/g16/c02/binary/g16/l401.exe)
 Initial guess from the checkpoint file:  "freq_1.chk"
 B after Tr=    -0.000000    0.000000   -0.000000
         Rot=    1.000000   -0.000000   -0.000000   -0.000000 Ang=   0.00 deg.
 Guess basis will be translated and rotated to current coordinates.
 JPrj=2 DoOrth=T DoCkMO=T.
 Initial guess <Sx>= 0.0000 <Sy>= 0.0000 <Sz>= 0.5000 <S**2>= 0.7790 S= 0.5144
 Leave Link  401 at Thu Jan 22 16:54:03 2026, MaxMem=  1610612736 cpu:               0.4 elap:               0.2
 (Enter /leonardo/prod/opt/applications/g16/c02/binary/g16/l502.exe)
 Integral symmetry usage will be decided dynamically.
 UHF open shell SCF:
 Using DIIS extrapolation, IDIIS=  1040.
 NGot=  1610612736 LenX=  1610539504 LenY=  1610504838
 Requested convergence on RMS density matrix=1.00D-08 within 128 cycles.
 Requested convergence on MAX density matrix=1.00D-06.
 Requested convergence on             energy=1.00D-06.
 No special actions if energy rises.
 Fock matrices will be formed incrementally for  20 cycles.

 Cycle   1  Pass 1  IDiag  1:
 FoFJK:  IHMeth= 1 ICntrl=       0 DoSepK=F KAlg= 0 I1Cent=           0 FoldK=F
 IRaf= 960000000 NMat=       1 IRICut=       1 DoRegI=T DoRafI=F ISym2E= 0 IDoP0=0 IntGTp=1.
 FoFCou: FMM=F IPFlag=           0 FMFlag=      100000 FMFlg1=           0
         NFxFlg=           0 DoJE=F BraDBF=F KetDBF=F FulRan=T
         wScrn=  0.000000 ICntrl=         0 IOpCl=  1 I1Cent=           0 NGrid=           0
         NMat0=    1 NMatS0=      1 NMatT0=    0 NMatD0=    1 NMtDS0=    0 NMtDT0=    0
 Symmetry not used in FoFCou.
 Inv3:  Mode=1 IEnd=     6509187.
 Iteration    1 A*A^-1 deviation from unit magnitude is 3.22D-15 for    477.
 Iteration    1 A*A^-1 deviation from orthogonality  is 1.70D-15 for   1187     83.
 Iteration    1 A^-1*A deviation from unit magnitude is 3.11D-15 for    477.
 Iteration    1 A^-1*A deviation from orthogonality  is 2.38D-15 for   1149    722.
 E= -381.591266890922    
 DIIS: error= 1.29D-08 at cycle   1 NSaved=   1.
 NSaved= 1 IEnMin= 1 EnMin= -381.591266890922     IErMin= 1 ErrMin= 1.29D-08
 ErrMax= 1.29D-08  0.00D+00 EMaxC= 1.00D-01 BMatC= 3.98D-14 BMatP= 3.98D-14
 IDIUse=1 WtCom= 1.00D+00 WtEn= 0.00D+00
 Coeff-Com:  0.100D+01
 Coeff:      0.100D+01
 Gap=     0.325 Goal=   None    Shift=    0.000
 Gap=     0.180 Goal=   None    Shift=    0.000
 RMSDP=1.43D-09 MaxDP=5.52D-08              OVMax= 2.28D-07

 Error on total polarization charges =  0.00650
 SCF Done:  E(UM062X) =  -381.591266891     A.U. after    1 cycles
            NFock=  1  Conv=0.14D-08     -V/T= 2.0108
 <Sx>= 0.0000 <Sy>= 0.0000 <Sz>= 0.5000 <S**2>= 0.7790 S= 0.5144
 <L.S>=  0.00000000000    
 KE= 3.775186796950D+02 PE=-1.735657113740D+03 EE= 5.441121566448D+02
 Annihilation of the first spin contaminant:
 S**2 before annihilation     0.7790,   after     0.7506
 Leave Link  502 at Thu Jan 22 16:54:05 2026, MaxMem=  1610612736 cpu:              18.0 elap:               2.3
 (Enter /leonardo/prod/opt/applications/g16/c02/binary/g16/l801.exe)
 DoSCS=F DFT=T ScalE2(SS,OS)=  1.000000  1.000000
 Range of M.O.s used for correlation:     1   176
 NBasis=   176 NAE=    33 NBE=    32 NFC=     0 NFV=     0
 NROrb=    176 NOA=    33 NOB=    32 NVA=   143 NVB=   144
 Leave Link  801 at Thu Jan 22 16:54:06 2026, MaxMem=  1610612736 cpu:               0.1 elap:               0.1
 (Enter /leonardo/prod/opt/applications/g16/c02/binary/g16/l1101.exe)
 Using compressed storage, NAtomX=    19.
 Will process     20 centers per pass.
   1 Symmetry operations used in ECPInt.
 ECPInt:  NShTT=    3570 NPrTT=   12708 LenC2=    3537 LenP2D=   10017.
 LDataN:  DoStor=T MaxTD1= 5 Len=  102
 R6Disp: Adding Grimme-D3 dispersion energy 1st derivatives to the gradient.
 Leave Link 1101 at Thu Jan 22 16:54:06 2026, MaxMem=  1610612736 cpu:               0.9 elap:               0.3
 (Enter /leonardo/prod/opt/applications/g16/c02/binary/g16/l1102.exe)
 Symmetrizing basis deriv contribution to polar:
 IMax=3 JMax=2 DiffMx= 0.00D+00
 Leave Link 1102 at Thu Jan 22 16:54:07 2026, MaxMem=  1610612736 cpu:               0.1 elap:               0.2
 (Enter /leonardo/prod/opt/applications/g16/c02/binary/g16/l1110.exe)
 Forming Gx(P) for the SCF density, NAtomX=    19.
 Integral derivatives from FoFJK, PRISM(SPDF).
 Do as many integral derivatives as possible in FoFJK.
 G2DrvN: MDV=    1610610643.
 G2DrvN: will do    20 centers at a time, making    1 passes.
 Calling FoFCou, ICntrl=  3107 FMM=F I1Cent=   0 AccDes= 0.00D+00.
 FoFJK:  IHMeth= 1 ICntrl=    3107 DoSepK=F KAlg= 0 I1Cent=           0 FoldK=F
 IRaf=         0 NMat=       1 IRICut=       1 DoRegI=T DoRafI=F ISym2E= 0 IDoP0=0 IntGTp=1.
 FoFCou: FMM=F IPFlag=           0 FMFlag=      100000 FMFlg1=           0
         NFxFlg=           0 DoJE=F BraDBF=F KetDBF=F FulRan=T
         wScrn=  0.000000 ICntrl=      3107 IOpCl=  1 I1Cent=           0 NGrid=           0
         NMat0=    1 NMatS0=      1 NMatT0=    0 NMatD0=    1 NMtDS0=    0 NMtDT0=    0
 Symmetry not used in FoFCou.
 NEqPCM:  Using equilibrium solvation (IEInf=0, Eps=  78.3553, EpsInf=   1.7778)
 G2PCM: DoFxE=T DoFxN=T DoGrad=T DoDP/DQ/DG/TGxP=FFFF NFrqRd=   0 IEInf=0 SqF1=F DoCFld=F IF1Alg=4.
 GePol: Maximum number of non-zero 1st derivatives   =     192
 End of G2Drv F.D. properties file   721 does not exist.
 End of G2Drv F.D. properties file   722 does not exist.
 End of G2Drv F.D. properties file   788 does not exist.
 Leave Link 1110 at Thu Jan 22 16:54:34 2026, MaxMem=  1610612736 cpu:             304.3 elap:              26.6
 (Enter /leonardo/prod/opt/applications/g16/c02/binary/g16/l1002.exe)
 Minotr:  UHF open shell wavefunction.
          IDoAtm=1111111111111111111
 NEqPCM:  Using equilibrium solvation (IEInf=0, Eps=  78.3553, EpsInf=   1.7778)
          Direct CPHF calculation.
          Differentiating once with respect to electric field.
                with respect to dipole field.
          Differentiating once with respect to nuclear coordinates.
          Requested convergence is 1.0D-08 RMS, and 1.0D-07 maximum.
          Secondary convergence is 1.0D-12 RMS, and 1.0D-12 maximum.
          NewPWx=T KeepS1=F KeepF1=F KeepIn=T MapXYZ=F SortEE=F KeepMc=T.
         5670 words used for storage of precomputed grid.
 Keep R1 and R2 ints in memory in canonical form, NReq=254786240.
 FoFCou: FMM=F IPFlag=           0 FMFlag=           0 FMFlg1=           0
         NFxFlg=           0 DoJE=F BraDBF=F KetDBF=F FulRan=T
         wScrn=  0.000000 ICntrl=       600 IOpCl=  0 I1Cent=           0 NGrid=           0
         NMat0=    1 NMatS0=  15576 NMatT0=    0 NMatD0=    1 NMtDS0=    0 NMtDT0=    0
 Symmetry not used in FoFCou.
 Two-electron integral symmetry not used.
          MDV=    1610612736 using IRadAn=       1.
          Solving linear equations simultaneously, MaxMat=       0.
          There are    60 degrees of freedom in the 1st order CPHF.  IDoFFX=6 NUNeed=     3.
     57 vectors produced by pass  0 Test12= 1.55D-14 1.67D-09 XBig12= 1.92D+02 9.33D+00.
 AX will form    57 AO Fock derivatives at one time.
     57 vectors produced by pass  1 Test12= 1.55D-14 1.67D-09 XBig12= 2.61D+01 8.89D-01.
     57 vectors produced by pass  2 Test12= 1.55D-14 1.67D-09 XBig12= 8.43D-01 2.70D-01.
     57 vectors produced by pass  3 Test12= 1.55D-14 1.67D-09 XBig12= 1.22D-02 2.56D-02.
     57 vectors produced by pass  4 Test12= 1.55D-14 1.67D-09 XBig12= 1.06D-04 1.78D-03.
     57 vectors produced by pass  5 Test12= 1.55D-14 1.67D-09 XBig12= 7.29D-07 1.14D-04.
     50 vectors produced by pass  6 Test12= 1.55D-14 1.67D-09 XBig12= 3.93D-09 7.82D-06.
     21 vectors produced by pass  7 Test12= 1.55D-14 1.67D-09 XBig12= 1.82D-11 4.91D-07.
      4 vectors produced by pass  8 Test12= 1.55D-14 1.67D-09 XBig12= 8.79D-14 3.08D-08.
      2 vectors produced by pass  9 Test12= 1.55D-14 1.67D-09 XBig12= 4.28D-16 2.04D-09.
 InvSVY:  IOpt=1 It=  1 EMax= 1.24D-14
 Solved reduced A of dimension   419 with    60 vectors.
 FullF1:  Do perturbations      1 to       3.
 Isotropic polarizability for W=    0.000000      120.01 Bohr**3.
 End of Minotr F.D. properties file   721 does not exist.
 End of Minotr F.D. properties file   722 does not exist.
 End of Minotr F.D. properties file   788 does not exist.
 Leave Link 1002 at Thu Jan 22 16:55:19 2026, MaxMem=  1610612736 cpu:             457.0 elap:              44.4
 (Enter /leonardo/prod/opt/applications/g16/c02/binary/g16/l601.exe)
 Copying SCF densities to generalized density rwf, IOpCl= 1 IROHF=0.

 **********************************************************************

            Population analysis using the SCF Density.

 **********************************************************************

 Orbital symmetries:
 Alpha Orbitals:
       Occupied  (A) (A) (A) (A) (A) (A) (A) (A) (A) (A) (A) (A)
                 (A) (A) (A) (A) (A) (A) (A) (A) (A) (A) (A) (A)
                 (A) (A) (A) (A) (A) (A) (A) (A) (A)
       Virtual   (A) (A) (A) (A) (A) (A) (A) (A) (A) (A) (A) (A)
                 (A) (A) (A) (A) (A) (A) (A) (A) (A) (A) (A) (A)
                 (A) (A) (A) (A) (A) (A) (A) (A) (A) (A) (A) (A)
                 (A) (A) (A) (A) (A) (A) (A) (A) (A) (A) (A) (A)
                 (A) (A) (A) (A) (A) (A) (A) (A) (A) (A) (A) (A)
                 (A) (A) (A) (A) (A) (A) (A) (A) (A) (A) (A) (A)
                 (A) (A) (A) (A) (A) (A) (A) (A) (A) (A) (A) (A)
                 (A) (A) (A) (A) (A) (A) (A) (A) (A) (A) (A) (A)
                 (A) (A) (A) (A) (A) (A) (A) (A) (A) (A) (A) (A)
                 (A) (A) (A) (A) (A) (A) (A) (A) (A) (A) (A) (A)
                 (A) (A) (A) (A) (A) (A) (A) (A) (A) (A) (A) (A)
                 (A) (A) (A) (A) (A) (A) (A) (A) (A) (A) (A)
 Beta  Orbitals:
       Occupied  (A) (A) (A) (A) (A) (A) (A) (A) (A) (A) (A) (A)
                 (A) (A) (A) (A) (A) (A) (A) (A) (A) (A) (A) (A)
                 (A) (A) (A) (A) (A) (A) (A) (A)
       Virtual   (A) (A) (A) (A) (A) (A) (A) (A) (A) (A) (A) (A)
                 (A) (A) (A) (A) (A) (A) (A) (A) (A) (A) (A) (A)
                 (A) (A) (A) (A) (A) (A) (A) (A) (A) (A) (A) (A)
                 (A) (A) (A) (A) (A) (A) (A) (A) (A) (A) (A) (A)
                 (A) (A) (A) (A) (A) (A) (A) (A) (A) (A) (A) (A)
                 (A) (A) (A) (A) (A) (A) (A) (A) (A) (A) (A) (A)
                 (A) (A) (A) (A) (A) (A) (A) (A) (A) (A) (A) (A)
                 (A) (A) (A) (A) (A) (A) (A) (A) (A) (A) (A) (A)
                 (A) (A) (A) (A) (A) (A) (A) (A) (A) (A) (A) (A)
                 (A) (A) (A) (A) (A) (A) (A) (A) (A) (A) (A) (A)
                 (A) (A) (A) (A) (A) (A) (A) (A) (A) (A) (A) (A)
                 (A) (A) (A) (A) (A) (A) (A) (A) (A) (A) (A) (A)
 The electronic state is 2-A.
 Alpha  occ. eigenvalues --  -14.91635 -14.80302 -10.66993 -10.62944 -10.62939
 Alpha  occ. eigenvalues --  -10.62640 -10.62639 -10.61693 -10.61693  -1.15680
 Alpha  occ. eigenvalues --   -1.08545  -0.94295  -0.90236  -0.86669  -0.82633
 Alpha  occ. eigenvalues --   -0.75186  -0.71079  -0.66483  -0.62919  -0.62478
 Alpha  occ. eigenvalues --   -0.58342  -0.56487  -0.56344  -0.54119  -0.51803
 Alpha  occ. eigenvalues --   -0.51744  -0.51335  -0.48914  -0.46028  -0.44355
 Alpha  occ. eigenvalues --   -0.36728  -0.36410  -0.34764
 Alpha virt. eigenvalues --   -0.02256  -0.02081   0.08347   0.10204   0.11524
 Alpha virt. eigenvalues --    0.12562   0.13767   0.14726   0.15196   0.15850
 Alpha virt. eigenvalues --    0.16214   0.17210   0.17786   0.19725   0.21157
 Alpha virt. eigenvalues --    0.21333   0.28200   0.29305   0.30893   0.31945
 Alpha virt. eigenvalues --    0.35697   0.40813   0.40934   0.42365   0.42958
 Alpha virt. eigenvalues --    0.45439   0.46869   0.46945   0.48253   0.51493
 Alpha virt. eigenvalues --    0.53534   0.54892   0.55625   0.57849   0.61432
 Alpha virt. eigenvalues --    0.62442   0.63397   0.64698   0.64829   0.66052
 Alpha virt. eigenvalues --    0.66763   0.66942   0.68898   0.69331   0.69905
 Alpha virt. eigenvalues --    0.69957   0.70730   0.72634   0.74370   0.74599
 Alpha virt. eigenvalues --    0.76586   0.78673   0.80473   0.83427   0.86084
 Alpha virt. eigenvalues --    0.86415   0.90853   0.91805   0.97627   1.03345
 Alpha virt. eigenvalues --    1.07390   1.08126   1.11774   1.15555   1.17328
 Alpha virt. eigenvalues --    1.21333   1.24780   1.25607   1.26615   1.28648
 Alpha virt. eigenvalues --    1.32689   1.34860   1.36883   1.37860   1.49278
 Alpha virt. eigenvalues --    1.50200   1.52567   1.53622   1.55081   1.55382
 Alpha virt. eigenvalues --    1.65941   1.69912   1.70465   1.72359   1.74667
 Alpha virt. eigenvalues --    1.75016   1.76327   1.76679   1.79361   1.79685
 Alpha virt. eigenvalues --    1.80004   1.82920   1.84491   1.84928   1.86240
 Alpha virt. eigenvalues --    1.88326   1.89738   1.93380   1.96053   1.97033
 Alpha virt. eigenvalues --    1.98063   2.02417   2.04015   2.06950   2.09059
 Alpha virt. eigenvalues --    2.11672   2.14800   2.17483   2.18089   2.20889
 Alpha virt. eigenvalues --    2.23029   2.26597   2.31269   2.32662   2.35386
 Alpha virt. eigenvalues --    2.39821   2.40323   2.40470   2.42640   2.49112
 Alpha virt. eigenvalues --    2.57279   2.58608   2.59852   2.62054   2.65746
 Alpha virt. eigenvalues --    2.67816   2.68231   2.71739   2.78318   2.79979
 Alpha virt. eigenvalues --    2.81407   2.87196   2.87601   2.89479   2.91811
 Alpha virt. eigenvalues --    2.92849   2.96001   2.98979   3.07370   3.15728
 Alpha virt. eigenvalues --    3.22991   3.34862   3.60377
  Beta  occ. eigenvalues --  -14.90729 -14.80080 -10.67100 -10.62977 -10.62972
  Beta  occ. eigenvalues --  -10.62717 -10.62716 -10.61560 -10.61560  -1.13346
  Beta  occ. eigenvalues --   -1.07895  -0.93500  -0.89869  -0.86115  -0.81753
  Beta  occ. eigenvalues --   -0.74861  -0.70590  -0.65689  -0.62259  -0.58726
  Beta  occ. eigenvalues --   -0.57802  -0.56357  -0.55521  -0.53925  -0.51027
  Beta  occ. eigenvalues --   -0.50754  -0.50306  -0.48722  -0.45777  -0.40919
  Beta  occ. eigenvalues --   -0.35988  -0.35390
  Beta virt. eigenvalues --   -0.17419  -0.01251   0.00067   0.08178   0.10377
  Beta virt. eigenvalues --    0.11381   0.12575   0.13868   0.14977   0.15201
  Beta virt. eigenvalues --    0.16000   0.16729   0.17436   0.17876   0.19816
  Beta virt. eigenvalues --    0.21440   0.21500   0.28438   0.29669   0.31108
  Beta virt. eigenvalues --    0.32122   0.35730   0.41028   0.41164   0.42710
  Beta virt. eigenvalues --    0.43382   0.45526   0.47026   0.47192   0.48363
  Beta virt. eigenvalues --    0.51808   0.53929   0.54871   0.55688   0.57973
  Beta virt. eigenvalues --    0.61653   0.62776   0.63435   0.64918   0.64955
  Beta virt. eigenvalues --    0.66463   0.66745   0.66956   0.69142   0.69397
  Beta virt. eigenvalues --    0.69944   0.69953   0.70869   0.72905   0.74220
  Beta virt. eigenvalues --    0.74582   0.76693   0.79135   0.80607   0.84513
  Beta virt. eigenvalues --    0.86368   0.89105   0.91219   0.93427   0.98174
  Beta virt. eigenvalues --    1.03804   1.07536   1.08528   1.12318   1.15883
  Beta virt. eigenvalues --    1.17787   1.21897   1.25782   1.26417   1.27249
  Beta virt. eigenvalues --    1.29157   1.32816   1.35299   1.36957   1.37939
  Beta virt. eigenvalues --    1.49426   1.50597   1.53002   1.54368   1.55145
  Beta virt. eigenvalues --    1.55472   1.66615   1.70329   1.70440   1.72824
  Beta virt. eigenvalues --    1.74872   1.75380   1.76522   1.76897   1.79464
  Beta virt. eigenvalues --    1.79819   1.80066   1.83095   1.84837   1.85329
  Beta virt. eigenvalues --    1.86456   1.88661   1.89876   1.93746   1.96202
  Beta virt. eigenvalues --    1.97214   1.98421   2.02632   2.04061   2.07169
  Beta virt. eigenvalues --    2.09243   2.11961   2.15246   2.18094   2.19005
  Beta virt. eigenvalues --    2.21289   2.23783   2.26915   2.31932   2.33354
  Beta virt. eigenvalues --    2.36204   2.39964   2.40391   2.40785   2.42660
  Beta virt. eigenvalues --    2.49680   2.58060   2.59518   2.60411   2.62503
  Beta virt. eigenvalues --    2.66321   2.69020   2.69355   2.72040   2.79264
  Beta virt. eigenvalues --    2.80750   2.82429   2.87654   2.87990   2.89777
  Beta virt. eigenvalues --    2.92086   2.93300   2.96280   2.99585   3.07938
  Beta virt. eigenvalues --    3.16487   3.23587   3.35894   3.60953
          Condensed to atoms (all electrons):
               1          2          3          4          5          6
     1  C    5.069397   0.340783   0.340784   0.011733  -0.054320   0.365075
     2  C    0.340783   5.005780  -0.025537   0.462885   0.427602  -0.076921
     3  C    0.340784  -0.025537   5.005791  -0.059113   0.009138  -0.076920
     4  C    0.011733   0.462885  -0.059113   4.679911  -0.027392   0.005623
     5  H   -0.054320   0.427602   0.009138  -0.027392   0.568894  -0.012291
     6  N    0.365075  -0.076921  -0.076920   0.005623  -0.012291   6.566779
     7  C    0.011731  -0.059111   0.462887  -0.055216  -0.000401   0.005623
     8  H   -0.054320   0.009137   0.427601  -0.000401   0.000021  -0.012289
     9  N   -0.062275  -0.028878  -0.028879   0.485817   0.005214  -0.000265
    10  H    0.007770  -0.054866   0.000750   0.427499  -0.006805  -0.000098
    11  C   -0.058704   0.007994   0.005822   0.001104   0.008261   0.289923
    12  C   -0.058703   0.005822   0.007988  -0.000091  -0.000082   0.289929
    13  H    0.007770   0.000750  -0.054866   0.003920   0.000043  -0.000098
    14  H   -0.006059   0.000791  -0.000381   0.000169  -0.000963  -0.016582
    15  H    0.005200   0.000327  -0.000110  -0.000036   0.000180  -0.018825
    16  H   -0.011015   0.002217   0.000053   0.001136  -0.002284  -0.012787
    17  H   -0.006055  -0.000381   0.000791   0.000012  -0.000005  -0.016585
    18  H   -0.011018   0.000053   0.002218  -0.000052  -0.000011  -0.012787
    19  H    0.005199  -0.000110   0.000327   0.000009  -0.000006  -0.018826
               7          8          9         10         11         12
     1  C    0.011731  -0.054320  -0.062275   0.007770  -0.058704  -0.058703
     2  C   -0.059111   0.009137  -0.028878  -0.054866   0.007994   0.005822
     3  C    0.462887   0.427601  -0.028879   0.000750   0.005822   0.007988
     4  C   -0.055216  -0.000401   0.485817   0.427499   0.001104  -0.000091
     5  H   -0.000401   0.000021   0.005214  -0.006805   0.008261  -0.000082
     6  N    0.005623  -0.012289  -0.000265  -0.000098   0.289923   0.289929
     7  C    4.679901  -0.027389   0.485825   0.003920  -0.000091   0.001104
     8  H   -0.027389   0.568891   0.005214   0.000043  -0.000082   0.008256
     9  N    0.485825   0.005214   6.375777  -0.038794   0.000020   0.000020
    10  H    0.003920   0.000043  -0.038794   0.579806  -0.000037   0.000006
    11  C   -0.000091  -0.000082   0.000020  -0.000037   4.546706  -0.033568
    12  C    0.001104   0.008256   0.000020   0.000006  -0.033568   4.546713
    13  H    0.427499  -0.006806  -0.038794  -0.000240   0.000006  -0.000037
    14  H    0.000012  -0.000005  -0.000004   0.000001   0.401723  -0.000676
    15  H    0.000009  -0.000006   0.000001  -0.000000   0.403272  -0.004205
    16  H   -0.000052  -0.000011  -0.000016   0.000016   0.401290   0.003302
    17  H    0.000169  -0.000962  -0.000004  -0.000000  -0.000677   0.401724
    18  H    0.001137  -0.002284  -0.000016  -0.000000   0.003303   0.401291
    19  H   -0.000036   0.000180   0.000001  -0.000000  -0.004207   0.403271
              13         14         15         16         17         18
     1  C    0.007770  -0.006059   0.005200  -0.011015  -0.006055  -0.011018
     2  C    0.000750   0.000791   0.000327   0.002217  -0.000381   0.000053
     3  C   -0.054866  -0.000381  -0.000110   0.000053   0.000791   0.002218
     4  C    0.003920   0.000169  -0.000036   0.001136   0.000012  -0.000052
     5  H    0.000043  -0.000963   0.000180  -0.002284  -0.000005  -0.000011
     6  N   -0.000098  -0.016582  -0.018825  -0.012787  -0.016585  -0.012787
     7  C    0.427499   0.000012   0.000009  -0.000052   0.000169   0.001137
     8  H   -0.006806  -0.000005  -0.000006  -0.000011  -0.000962  -0.002284
     9  N   -0.038794  -0.000004   0.000001  -0.000016  -0.000004  -0.000016
    10  H   -0.000240   0.000001  -0.000000   0.000016  -0.000000  -0.000000
    11  C    0.000006   0.401723   0.403272   0.401290  -0.000677   0.003303
    12  C   -0.000037  -0.000676  -0.004205   0.003302   0.401724   0.401291
    13  H    0.579807  -0.000000  -0.000000  -0.000000   0.000001   0.000016
    14  H   -0.000000   0.510980  -0.014165  -0.016150  -0.000198   0.000049
    15  H   -0.000000  -0.014165   0.519666  -0.013351   0.000796   0.000293
    16  H   -0.000000  -0.016150  -0.013351   0.521857   0.000050  -0.000268
    17  H    0.000001  -0.000198   0.000796   0.000050   0.510976  -0.016149
    18  H    0.000016   0.000049   0.000293  -0.000268  -0.016149   0.521858
    19  H   -0.000000   0.000796   0.000352   0.000293  -0.014165  -0.013351
              19
     1  C    0.005199
     2  C   -0.000110
     3  C    0.000327
     4  C    0.000009
     5  H   -0.000006
     6  N   -0.018826
     7  C   -0.000036
     8  H    0.000180
     9  N    0.000001
    10  H   -0.000000
    11  C   -0.004207
    12  C    0.403271
    13  H   -0.000000
    14  H    0.000796
    15  H    0.000352
    16  H    0.000293
    17  H   -0.014165
    18  H   -0.013351
    19  H    0.519666
          Atomic-Atomic Spin Densities.
               1          2          3          4          5          6
     1  C   -0.140247   0.022158   0.022157   0.002498   0.000176  -0.056436
     2  C    0.022158   0.250994   0.008916  -0.009387   0.001350  -0.015276
     3  C    0.022157   0.008916   0.251009  -0.001154  -0.000080  -0.015277
     4  C    0.002498  -0.009387  -0.001154  -0.117077  -0.000043   0.000162
     5  H    0.000176   0.001350  -0.000080  -0.000043  -0.012560   0.000017
     6  N   -0.056436  -0.015276  -0.015277   0.000162   0.000017   0.782597
     7  C    0.002498  -0.001153  -0.009386   0.003777   0.000009   0.000162
     8  H    0.000176  -0.000080   0.001350   0.000009  -0.000002   0.000017
     9  N   -0.000911  -0.008080  -0.008080   0.004526  -0.000109   0.000054
    10  H   -0.000042  -0.000099   0.000015   0.000029  -0.000018  -0.000001
    11  C    0.003807   0.001125  -0.000039  -0.000049  -0.000152  -0.030326
    12  C    0.003807  -0.000039   0.001125   0.000010  -0.000008  -0.030329
    13  H   -0.000042   0.000015  -0.000099  -0.000067  -0.000001  -0.000001
    14  H    0.000947   0.000931   0.000042  -0.000031   0.000178  -0.012908
    15  H   -0.000002   0.000061   0.000020   0.000001  -0.000018  -0.001846
    16  H    0.000790   0.001975   0.000182   0.000039  -0.000112  -0.004816
    17  H    0.000947   0.000042   0.000931   0.000002  -0.000003  -0.012908
    18  H    0.000789   0.000182   0.001974  -0.000009   0.000003  -0.004813
    19  H   -0.000002   0.000020   0.000061  -0.000001   0.000002  -0.001849
               7          8          9         10         11         12
     1  C    0.002498   0.000176  -0.000911  -0.000042   0.003807   0.003807
     2  C   -0.001153  -0.000080  -0.008080  -0.000099   0.001125  -0.000039
     3  C   -0.009386   0.001350  -0.008080   0.000015  -0.000039   0.001125
     4  C    0.003777   0.000009   0.004526   0.000029  -0.000049   0.000010
     5  H    0.000009  -0.000002  -0.000109  -0.000018  -0.000152  -0.000008
     6  N    0.000162   0.000017   0.000054  -0.000001  -0.030326  -0.030329
     7  C   -0.117078  -0.000043   0.004525  -0.000067   0.000010  -0.000049
     8  H   -0.000043  -0.012561  -0.000109  -0.000001  -0.000008  -0.000151
     9  N    0.004525  -0.000109   0.219751   0.000148  -0.000001  -0.000001
    10  H   -0.000067  -0.000001   0.000148   0.004020   0.000001  -0.000000
    11  C    0.000010  -0.000008  -0.000001   0.000001  -0.031859   0.002170
    12  C   -0.000049  -0.000151  -0.000001  -0.000000   0.002170  -0.031857
    13  H    0.000029  -0.000018   0.000148  -0.000005  -0.000000   0.000001
    14  H    0.000002  -0.000003  -0.000002   0.000001   0.013866   0.000408
    15  H   -0.000001   0.000002  -0.000000  -0.000000   0.002586   0.000172
    16  H   -0.000009   0.000003  -0.000006  -0.000003   0.002739   0.000043
    17  H   -0.000031   0.000179  -0.000002  -0.000000   0.000408   0.013869
    18  H    0.000039  -0.000112  -0.000006   0.000000   0.000043   0.002736
    19  H    0.000001  -0.000018  -0.000000   0.000000   0.000172   0.002589
              13         14         15         16         17         18
     1  C   -0.000042   0.000947  -0.000002   0.000790   0.000947   0.000789
     2  C    0.000015   0.000931   0.000061   0.001975   0.000042   0.000182
     3  C   -0.000099   0.000042   0.000020   0.000182   0.000931   0.001974
     4  C   -0.000067  -0.000031   0.000001   0.000039   0.000002  -0.000009
     5  H   -0.000001   0.000178  -0.000018  -0.000112  -0.000003   0.000003
     6  N   -0.000001  -0.012908  -0.001846  -0.004816  -0.012908  -0.004813
     7  C    0.000029   0.000002  -0.000001  -0.000009  -0.000031   0.000039
     8  H   -0.000018  -0.000003   0.000002   0.000003   0.000179  -0.000112
     9  N    0.000148  -0.000002  -0.000000  -0.000006  -0.000002  -0.000006
    10  H   -0.000005   0.000001  -0.000000  -0.000003  -0.000000   0.000000
    11  C   -0.000000   0.013866   0.002586   0.002739   0.000408   0.000043
    12  C    0.000001   0.000408   0.000172   0.000043   0.013869   0.002736
    13  H    0.004020  -0.000000   0.000000   0.000000   0.000001  -0.000003
    14  H   -0.000000   0.050337  -0.003641  -0.006057  -0.000297   0.000291
    15  H    0.000000  -0.003641   0.009455   0.002293   0.000641  -0.000149
    16  H    0.000000  -0.006057   0.002293   0.019839   0.000291  -0.000073
    17  H    0.000001  -0.000297   0.000641   0.000291   0.050342  -0.006055
    18  H   -0.000003   0.000291  -0.000149  -0.000073  -0.006055   0.019828
    19  H   -0.000000   0.000641  -0.000823  -0.000149  -0.003643   0.002294
              19
     1  C   -0.000002
     2  C    0.000020
     3  C    0.000061
     4  C   -0.000001
     5  H    0.000002
     6  N   -0.001849
     7  C    0.000001
     8  H   -0.000018
     9  N   -0.000000
    10  H    0.000000
    11  C    0.000172
    12  C    0.002589
    13  H   -0.000000
    14  H    0.000641
    15  H   -0.000823
    16  H   -0.000149
    17  H   -0.003643
    18  H    0.002294
    19  H    0.009466
 Mulliken charges and spin densities:
               1          2
     1  C    0.157028  -0.136930
     2  C   -0.018338   0.253654
     3  C   -0.018345   0.253669
     4  C    0.062482  -0.116762
     5  H    0.085209  -0.011370
     6  N   -0.247676   0.596224
     7  C    0.062480  -0.116764
     8  H    0.085213  -0.011371
     9  N   -0.159961   0.211846
    10  H    0.081030   0.003978
    11  C    0.027942  -0.035507
    12  C    0.027937  -0.035506
    13  H    0.081029   0.003978
    14  H    0.140660   0.044707
    15  H    0.120602   0.008751
    16  H    0.125721   0.016969
    17  H    0.140663   0.044712
    18  H    0.125718   0.016960
    19  H    0.120606   0.008761
 Sum of Mulliken charges =   1.00000   1.00000
 Mulliken charges and spin densities with hydrogens summed into heavy atoms:
               1          2
     1  C    0.157028  -0.136930
     2  C    0.066871   0.242284
     3  C    0.066868   0.242298
     4  C    0.143512  -0.112784
     6  N   -0.247676   0.596224
     7  C    0.143509  -0.112787
     9  N   -0.159961   0.211846
    11  C    0.414926   0.034921
    12  C    0.414925   0.034927
 APT charges:
               1
     1  C   -0.389784
     2  C    0.041946
     3  C    0.041954
     4  C    0.017078
     5  H    0.127626
     6  N    0.421411
     7  C    0.017090
     8  H    0.127624
     9  N   -0.144889
    10  H    0.069566
    11  C    0.067655
    12  C    0.067570
    13  H    0.069563
    14  H    0.079675
    15  H    0.096566
    16  H    0.056529
    17  H    0.079702
    18  H    0.056540
    19  H    0.096578
 Sum of APT charges =   1.00000
 APT charges with hydrogens summed into heavy atoms:
               1
     1  C   -0.389784
     2  C    0.169571
     3  C    0.169578
     4  C    0.086644
     6  N    0.421411
     7  C    0.086653
     9  N   -0.144889
    11  C    0.300425
    12  C    0.300390
 Electronic spatial extent (au):  <R**2>=           1228.3224
 Charge=              1.0000 electrons
 Dipole moment (field-independent basis, Debye):
    X=             -7.5543    Y=              0.0000    Z=              0.0000  Tot=              7.5543
 Quadrupole moment (field-independent basis, Debye-Ang):
   XX=            -36.4525   YY=            -34.7763   ZZ=            -52.3888
   XY=             -0.0000   XZ=              0.0001   YZ=             -0.4237
 Traceless Quadrupole moment (field-independent basis, Debye-Ang):
   XX=              4.7534   YY=              6.4296   ZZ=            -11.1829
   XY=             -0.0000   XZ=              0.0001   YZ=             -0.4237
 Octapole moment (field-independent basis, Debye-Ang**2):
  XXX=            -80.7389  YYY=              0.0003  ZZZ=             -0.0004  XYY=             -4.2299
  XXY=              0.0003  XXZ=              0.0003  XZZ=             -8.2147  YZZ=             -0.0004
  YYZ=              0.0003  XYZ=             -1.2846
 Hexadecapole moment (field-independent basis, Debye-Ang**3):
 XXXX=          -1044.7301 YYYY=           -362.6840 ZZZZ=            -66.9779 XXXY=             -0.0017
 XXXZ=             -0.0002 YYYX=              0.0003 YYYZ=             -2.3395 ZZZX=              0.0008
 ZZZY=             -0.3806 XXYY=           -189.4066 XXZZ=           -192.1819 YYZZ=            -80.8064
 XXYZ=             -2.4886 YYXZ=              0.0007 ZZXY=              0.0000
 N-N= 4.324350105091D+02 E-N=-1.735657113664D+03  KE= 3.775186796950D+02
  Exact polarizability:     174.782      -0.000     127.059       0.000      -3.452      58.193
 Approx polarizability:     147.834      -0.000     118.763       0.000      -3.133      60.197
                          Isotropic Fermi Contact Couplings
        Atom                 a.u.       MegaHertz       Gauss      10(-4) cm-1
     1  C(13)             -0.05292     -59.48777     -21.22671     -19.84298
     2  C(13)              0.03569      40.12494      14.31758      13.38424
     3  C(13)              0.03570      40.12837      14.31880      13.38538
     4  C(13)             -0.03051     -34.30184     -12.23975     -11.44186
     5  H(1)              -0.00364     -16.27702      -5.80804      -5.42943
     6  N(14)              0.18209      58.83262      20.99294      19.62445
     7  C(13)             -0.03051     -34.30240     -12.23995     -11.44205
     8  H(1)              -0.00364     -16.27776      -5.80831      -5.42968
     9  N(14)              0.04484      14.48737       5.16945       4.83247
    10  H(1)               0.00115       5.13257       1.83143       1.71204
    11  C(13)             -0.02455     -27.60186      -9.84903      -9.20699
    12  C(13)             -0.02455     -27.60244      -9.84924      -9.20718
    13  H(1)               0.00115       5.13248       1.83140       1.71201
    14  H(1)               0.02072      92.59569      33.04045      30.88660
    15  H(1)               0.00416      18.59551       6.63534       6.20279
    16  H(1)               0.00699      31.26586      11.15644      10.42917
    17  H(1)               0.02072      92.60689      33.04444      30.89033
    18  H(1)               0.00699      31.24621      11.14942      10.42261
    19  H(1)               0.00417      18.61731       6.64312       6.21007
 --------------------------------------------------------
       Center         ----  Spin Dipole Couplings  ----
                      3XX-RR        3YY-RR        3ZZ-RR
 --------------------------------------------------------
     1   Atom        0.060686      0.027465     -0.088151
     2   Atom       -0.110538     -0.104231      0.214769
     3   Atom       -0.110545     -0.104241      0.214786
     4   Atom        0.051213      0.045647     -0.096860
     5   Atom       -0.008980      0.014712     -0.005733
     6   Atom       -0.703960     -0.664508      1.368468
     7   Atom        0.051214      0.045648     -0.096862
     8   Atom       -0.008981      0.014714     -0.005733
     9   Atom       -0.198618     -0.210049      0.408667
    10   Atom        0.003926     -0.000126     -0.003800
    11   Atom       -0.011957     -0.001740      0.013697
    12   Atom       -0.011960     -0.001741      0.013700
    13   Atom        0.003926     -0.000126     -0.003800
    14   Atom       -0.003967      0.004970     -0.001003
    15   Atom        0.009675     -0.002889     -0.006787
    16   Atom       -0.003009      0.008795     -0.005786
    17   Atom       -0.003966      0.004967     -0.001001
    18   Atom       -0.003009      0.008796     -0.005788
    19   Atom        0.009676     -0.002889     -0.006787
 --------------------------------------------------------
                        XY            XZ            YZ
 --------------------------------------------------------
     1   Atom        0.000000      0.000001     -0.015632
     2   Atom       -0.004031     -0.015214      0.037944
     3   Atom        0.004031      0.015219      0.037938
     4   Atom        0.005900     -0.000147     -0.009427
     5   Atom        0.007764     -0.000898     -0.000861
     6   Atom        0.000002     -0.000009     -0.236120
     7   Atom       -0.005900      0.000145     -0.009425
     8   Atom       -0.007765      0.000898     -0.000860
     9   Atom        0.000001      0.000007      0.032932
    10   Atom        0.003129     -0.000243     -0.000275
    11   Atom        0.009614      0.006172     -0.004745
    12   Atom       -0.009615     -0.006173     -0.004746
    13   Atom       -0.003129      0.000243     -0.000275
    14   Atom        0.007309     -0.003667     -0.008033
    15   Atom        0.007500      0.003430      0.002396
    16   Atom        0.001768      0.001303      0.007023
    17   Atom       -0.007311      0.003670     -0.008032
    18   Atom       -0.001767     -0.001303      0.007021
    19   Atom       -0.007499     -0.003433      0.002397
 --------------------------------------------------------


 ---------------------------------------------------------------------------------
              Anisotropic Spin Dipole Couplings in Principal Axis System
 ---------------------------------------------------------------------------------

       Atom             a.u.   MegaHertz   Gauss  10(-4) cm-1        Axes

              Baa    -0.0902   -12.108    -4.320    -4.039 -0.0000  0.1317  0.9913
     1 C(13)  Bbb     0.0295     3.964     1.415     1.322 -0.0000  0.9913 -0.1317
              Bcc     0.0607     8.143     2.906     2.716  1.0000  0.0000  0.0000
 
              Baa    -0.1126   -15.104    -5.389    -5.038  0.8657  0.5002 -0.0177
     2 C(13)  Bbb    -0.1074   -14.412    -5.143    -4.807 -0.4983  0.8580 -0.1246
              Bcc     0.2200    29.516    10.532     9.845 -0.0471  0.1167  0.9921
 
              Baa    -0.1126   -15.105    -5.390    -5.038  0.8657 -0.5002  0.0177
     3 C(13)  Bbb    -0.1074   -14.413    -5.143    -4.808  0.4983  0.8580 -0.1246
              Bcc     0.2200    29.518    10.533     9.846  0.0471  0.1167  0.9921
 
              Baa    -0.0975   -13.081    -4.668    -4.363 -0.0016  0.0658  0.9978
     4 C(13)  Bbb     0.0423     5.683     2.028     1.895 -0.5538  0.8308 -0.0557
              Bcc     0.0551     7.399     2.640     2.468  0.8327  0.5527 -0.0351
 
              Baa    -0.0114    -6.064    -2.164    -2.023  0.9537 -0.2803  0.1092
     5 H(1)   Bbb    -0.0057    -3.050    -1.088    -1.017 -0.0912  0.0765  0.9929
              Bcc     0.0171     9.114     3.252     3.040  0.2867  0.9568 -0.0474
 
              Baa    -0.7040   -27.150    -9.688    -9.056  1.0000 -0.0001 -0.0000
     6 N(14)  Bbb    -0.6916   -26.672    -9.517    -8.897  0.0001  0.9935  0.1139
              Bcc     1.3955    53.823    19.205    17.953 -0.0000 -0.1139  0.9935
 
              Baa    -0.0975   -13.081    -4.668    -4.363  0.0016  0.0658  0.9978
     7 C(13)  Bbb     0.0423     5.683     2.028     1.895  0.5538  0.8308 -0.0557
              Bcc     0.0551     7.399     2.640     2.468  0.8327 -0.5527  0.0351
 
              Baa    -0.0114    -6.064    -2.164    -2.023  0.9537  0.2804 -0.1092
     8 H(1)   Bbb    -0.0057    -3.050    -1.088    -1.017  0.0912  0.0764  0.9929
              Bcc     0.0171     9.115     3.252     3.040 -0.2867  0.9568 -0.0473
 
              Baa    -0.2118    -8.169    -2.915    -2.725 -0.0000  0.9986 -0.0530
     9 N(14)  Bbb    -0.1986    -7.660    -2.733    -2.555  1.0000  0.0000 -0.0000
              Bcc     0.4104    15.829     5.648     5.280  0.0000  0.0530  0.9986
 
              Baa    -0.0038    -2.039    -0.727    -0.680  0.0021  0.0725  0.9974
    10 H(1)   Bbb    -0.0018    -0.971    -0.346    -0.324 -0.4794  0.8754 -0.0626
              Bcc     0.0056     3.009     1.074     1.004  0.8776  0.4780 -0.0365
 
              Baa    -0.0195    -2.622    -0.936    -0.875  0.8303 -0.5090 -0.2269
    11 C(13)  Bbb     0.0040     0.533     0.190     0.178  0.5354  0.8416  0.0710
              Bcc     0.0156     2.088     0.745     0.697  0.1548 -0.1804  0.9713
 
              Baa    -0.0195    -2.622    -0.936    -0.875  0.8303  0.5090  0.2269
    12 C(13)  Bbb     0.0040     0.533     0.190     0.178 -0.5353  0.8417  0.0709
              Bcc     0.0156     2.089     0.745     0.697 -0.1548 -0.1804  0.9713
 
              Baa    -0.0038    -2.039    -0.727    -0.680 -0.0021  0.0724  0.9974
    13 H(1)   Bbb    -0.0018    -0.971    -0.346    -0.324  0.4793  0.8754 -0.0626
              Bcc     0.0056     3.009     1.074     1.004  0.8776 -0.4779  0.0365
 
              Baa    -0.0083    -4.405    -1.572    -1.469  0.7743 -0.5806 -0.2516
    14 H(1)   Bbb    -0.0059    -3.159    -1.127    -1.054  0.4833  0.2859  0.8274
              Bcc     0.0142     7.564     2.699     2.523  0.4085  0.7623 -0.5020
 
              Baa    -0.0079    -4.230    -1.509    -1.411  0.0187 -0.4518  0.8919
    15 H(1)   Bbb    -0.0061    -3.237    -1.155    -1.080 -0.4636  0.7864  0.4081
              Bcc     0.0140     7.467     2.664     2.491  0.8858  0.4211  0.1948
 
              Baa    -0.0087    -4.628    -1.651    -1.544 -0.1000 -0.3624  0.9266
    16 H(1)   Bbb    -0.0033    -1.738    -0.620    -0.580  0.9849 -0.1681  0.0406
              Bcc     0.0119     6.366     2.271     2.123  0.1411  0.9167  0.3738
 
              Baa    -0.0083    -4.406    -1.572    -1.470  0.7746  0.5806  0.2509
    17 H(1)   Bbb    -0.0059    -3.159    -1.127    -1.054 -0.4827  0.2864  0.8276
              Bcc     0.0142     7.565     2.699     2.523 -0.4087  0.7622 -0.5021
 
              Baa    -0.0087    -4.628    -1.651    -1.544  0.1001 -0.3623  0.9267
    18 H(1)   Bbb    -0.0033    -1.738    -0.620    -0.580  0.9849  0.1681 -0.0407
              Bcc     0.0119     6.365     2.271     2.123 -0.1410  0.9168  0.3737
 
              Baa    -0.0079    -4.231    -1.510    -1.411 -0.0184 -0.4515  0.8921
    19 H(1)   Bbb    -0.0061    -3.237    -1.155    -1.080  0.4636  0.7866  0.4077
              Bcc     0.0140     7.467     2.665     2.491  0.8858 -0.4211 -0.1949
 

 ---------------------------------------------------------------------------------

 No NMR shielding tensors so no spin-rotation constants.
 Leave Link  601 at Thu Jan 22 16:55:19 2026, MaxMem=  1610612736 cpu:               1.3 elap:               0.3
 (Enter /leonardo/prod/opt/applications/g16/c02/binary/g16/l701.exe)
 ... and contract with generalized density number  0.
 Compute integral second derivatives.
 R6Disp: Adding Grimme-D3 dispersion energy 2nd derivatives to the Hessian.
   1 Symmetry operations used in ECPInt.
 ECPInt:  NShTT=    3570 NPrTT=   12708 LenC2=    3537 LenP2D=   10017.
 LDataN:  DoStor=T MaxTD1= 6 Len=  172
 D2PCM: PCM CHGder 2nd derivatives, FixD1E=F FixD2E=F DoIter=F DoCFld=F I1PDM=0
 GePol: Maximum number of non-zero 2nd derivatives   =     192
 Leave Link  701 at Thu Jan 22 16:55:22 2026, MaxMem=  1610612736 cpu:              18.6 elap:               2.1
 (Enter /leonardo/prod/opt/applications/g16/c02/binary/g16/l702.exe)
 L702 exits ... SP integral derivatives will be done elsewhere.
 Leave Link  702 at Thu Jan 22 16:55:22 2026, MaxMem=  1610612736 cpu:               0.1 elap:               0.1
 (Enter /leonardo/prod/opt/applications/g16/c02/binary/g16/l703.exe)
 Integral derivatives from FoFJK, PRISM(SPDF).
 Compute integral second derivatives, UseDBF=F ICtDFT=           0.
 Calling FoFJK, ICntrl=    100127 FMM=F ISym2X=0 I1Cent= 0 IOpClX= 1 NMat=1 NMatS=1 NMatT=0.
 FoFJK:  IHMeth= 1 ICntrl=  100127 DoSepK=F KAlg= 0 I1Cent=           0 FoldK=F
 IRaf=         0 NMat=       1 IRICut=       1 DoRegI=T DoRafI=F ISym2E= 0 IDoP0=0 IntGTp=1.
 FoFCou: FMM=F IPFlag=           0 FMFlag=      100000 FMFlg1=         800
         NFxFlg=           0 DoJE=F BraDBF=F KetDBF=F FulRan=T
         wScrn=  0.000000 ICntrl=    100127 IOpCl=  1 I1Cent=           0 NGrid=           0
         NMat0=    1 NMatS0=      1 NMatT0=    0 NMatD0=    1 NMtDS0=    0 NMtDT0=    0
 Symmetry not used in FoFCou.
 Leave Link  703 at Thu Jan 22 16:55:44 2026, MaxMem=  1610612736 cpu:             252.4 elap:              21.5
 (Enter /leonardo/prod/opt/applications/g16/c02/binary/g16/l716.exe)
 Dipole        =-2.97207748D+00 6.08567743D-06 1.01756256D-05
 Polarizability= 1.74782417D+02-2.82900630D-04 1.27059246D+02
                 4.38625930D-04-3.45153003D+00 5.81926736D+01
 Full mass-weighted force constant matrix:
 Low frequencies ---  -18.1010   -0.0006   -0.0002    0.0008   23.5391   24.4376
 Low frequencies ---   74.0700   89.4096  123.4977
 Diagonal vibrational polarizability:
       18.1806179       5.9232825      10.1301698
 Harmonic frequencies (cm**-1), IR intensities (KM/Mole), Raman scattering
 activities (A**4/AMU), depolarization ratios for plane and unpolarized
 incident light, reduced masses (AMU), force constants (mDyne/A),
 and normal coordinates:
                      1                      2                      3
                      A                      A                      A
 Frequencies --     74.0441                88.4750               122.6458
 Red. masses --      1.7186                 1.1120                 1.4271
 Frc consts  --      0.0056                 0.0051                 0.0126
 IR Inten    --      1.1832                 0.5172                 0.1102
  Atom  AN      X      Y      Z        X      Y      Z        X      Y      Z
     1   6    -0.01  -0.00  -0.00    -0.00   0.03   0.02     0.00  -0.00   0.00
     2   6    -0.01  -0.00  -0.07    -0.02   0.01   0.01     0.01  -0.00  -0.06
     3   6    -0.01   0.00   0.07     0.02   0.01   0.01     0.01   0.00   0.06
     4   6    -0.01  -0.00  -0.07    -0.02  -0.01   0.00     0.01  -0.00  -0.07
     5   1    -0.00  -0.01  -0.14    -0.04   0.02   0.01     0.03  -0.01  -0.12
     6   7    -0.01  -0.00  -0.00    -0.00   0.02   0.01     0.01  -0.00  -0.00
     7   6    -0.01   0.00   0.07     0.02  -0.01   0.00     0.01   0.00   0.07
     8   1    -0.00   0.01   0.14     0.04   0.02   0.01     0.03   0.01   0.12
     9   7    -0.01   0.00  -0.00     0.00  -0.02  -0.00     0.02   0.00  -0.00
    10   1    -0.01  -0.01  -0.14    -0.03  -0.02  -0.01     0.01  -0.01  -0.14
    11   6     0.02  -0.04   0.14     0.04  -0.01  -0.02    -0.03   0.02   0.09
    12   6     0.02   0.04  -0.14    -0.04  -0.01  -0.02    -0.03  -0.02  -0.09
    13   1    -0.01   0.01   0.14     0.03  -0.02  -0.00     0.01   0.01   0.14
    14   1     0.36  -0.12   0.13     0.39  -0.24  -0.11    -0.33   0.27   0.19
    15   1    -0.10  -0.08   0.46    -0.08  -0.01   0.34     0.07   0.01  -0.23
    16   1    -0.14   0.05  -0.05    -0.11   0.19  -0.32     0.08  -0.19   0.37
    17   1     0.37   0.13  -0.12    -0.39  -0.24  -0.11    -0.33  -0.27  -0.19
    18   1    -0.14  -0.05   0.06     0.10   0.19  -0.32     0.08   0.19  -0.37
    19   1    -0.10   0.08  -0.47     0.08  -0.01   0.33     0.07  -0.01   0.22
                      4                      5                      6
                      A                      A                      A
 Frequencies --    144.9764               274.8683               367.5023
 Red. masses --      4.1486                 2.8701                 3.5434
 Frc consts  --      0.0514                 0.1278                 0.2820
 IR Inten    --      0.5919                 1.6984                17.1150
  Atom  AN      X      Y      Z        X      Y      Z        X      Y      Z
     1   6     0.00  -0.02  -0.23    -0.00   0.14  -0.05     0.00   0.03   0.10
     2   6     0.00  -0.01  -0.22    -0.08   0.09  -0.02    -0.01   0.01  -0.13
     3   6    -0.00  -0.01  -0.22     0.08   0.09  -0.02     0.01   0.01  -0.13
     4   6     0.00   0.01   0.05    -0.09  -0.05   0.01    -0.01  -0.02  -0.07
     5   1     0.01  -0.03  -0.35    -0.14   0.13   0.01    -0.01   0.01  -0.23
     6   7     0.00  -0.01  -0.06    -0.00   0.05  -0.05     0.00  -0.01   0.34
     7   6    -0.00   0.01   0.05     0.09  -0.05   0.01     0.01  -0.02  -0.07
     8   1    -0.01  -0.03  -0.34     0.14   0.13   0.01     0.01   0.01  -0.24
     9   7     0.00   0.02   0.26    -0.00  -0.10   0.00    -0.00  -0.01   0.16
    10   1     0.01   0.02   0.15    -0.18  -0.10   0.03    -0.03  -0.03  -0.14
    11   6    -0.04   0.00   0.14     0.18  -0.07   0.05     0.05   0.00  -0.06
    12   6     0.04   0.00   0.14    -0.18  -0.07   0.05    -0.05   0.00  -0.06
    13   1    -0.01   0.02   0.15     0.18  -0.10   0.03     0.03  -0.03  -0.14
    14   1     0.15   0.04   0.17     0.10   0.10   0.13    -0.21  -0.23  -0.20
    15   1    -0.11  -0.00   0.33     0.19  -0.26  -0.13     0.14   0.07  -0.27
    16   1    -0.19  -0.03   0.07     0.33  -0.13   0.22     0.22   0.17  -0.10
    17   1    -0.15   0.04   0.17    -0.10   0.10   0.13     0.21  -0.23  -0.20
    18   1     0.19  -0.03   0.06    -0.33  -0.13   0.22    -0.22   0.17  -0.10
    19   1     0.11  -0.00   0.33    -0.19  -0.26  -0.13    -0.14   0.08  -0.27
                      7                      8                      9
                      A                      A                      A
 Frequencies --    375.8486               404.9009               478.9509
 Red. masses --      2.5683                 3.2932                 3.6143
 Frc consts  --      0.2138                 0.3181                 0.4885
 IR Inten    --      0.4100                13.4753                 3.4541
  Atom  AN      X      Y      Z        X      Y      Z        X      Y      Z
     1   6     0.00  -0.00  -0.00     0.01  -0.00  -0.00    -0.00  -0.14   0.05
     2   6    -0.03  -0.00   0.17    -0.08  -0.05  -0.08     0.07  -0.16  -0.01
     3   6    -0.03   0.00  -0.17    -0.08   0.05   0.08    -0.07  -0.16  -0.01
     4   6    -0.03  -0.02  -0.18    -0.12  -0.03   0.06     0.07  -0.03  -0.02
     5   1    -0.05   0.03   0.43    -0.11  -0.03  -0.17     0.19  -0.23  -0.05
     6   7     0.02   0.00  -0.00     0.07   0.00  -0.00    -0.00   0.17  -0.05
     7   6    -0.03   0.02   0.18    -0.12   0.03  -0.06    -0.07  -0.03  -0.02
     8   1    -0.05  -0.03  -0.43    -0.11   0.03   0.17    -0.19  -0.23  -0.05
     9   7    -0.05   0.00  -0.00    -0.18   0.00  -0.00     0.00   0.04   0.04
    10   1    -0.02  -0.03  -0.45    -0.07   0.01   0.16     0.17   0.03  -0.07
    11   6     0.07  -0.02  -0.01     0.21  -0.07   0.00     0.18   0.13   0.01
    12   6     0.07   0.02   0.01     0.21   0.07  -0.00    -0.18   0.13   0.01
    13   1    -0.02   0.03   0.45    -0.07  -0.01  -0.16    -0.17   0.03  -0.07
    14   1     0.03  -0.01  -0.01     0.10   0.02   0.04     0.27   0.19   0.05
    15   1     0.07  -0.07  -0.06     0.24  -0.21  -0.19     0.13  -0.10  -0.01
    16   1     0.13  -0.01   0.02     0.38  -0.08   0.14     0.30   0.15   0.09
    17   1     0.03   0.01   0.01     0.10  -0.02  -0.04    -0.27   0.19   0.05
    18   1     0.13   0.01  -0.02     0.38   0.08  -0.14    -0.30   0.15   0.09
    19   1     0.07   0.07   0.06     0.24   0.21   0.19    -0.13  -0.10  -0.01
                     10                     11                     12
                      A                      A                      A
 Frequencies --    533.7162               546.7187               658.1776
 Red. masses --      3.2363                 3.4023                 6.8680
 Frc consts  --      0.5431                 0.5992                 1.7529
 IR Inten    --      8.5731                13.1164                11.2376
  Atom  AN      X      Y      Z        X      Y      Z        X      Y      Z
     1   6     0.15  -0.00   0.00    -0.00   0.04   0.28     0.00  -0.14   0.04
     2   6    -0.01  -0.09   0.01    -0.01   0.03   0.04    -0.25  -0.20  -0.00
     3   6    -0.01   0.09  -0.01     0.01   0.03   0.04     0.25  -0.20  -0.00
     4   6    -0.04  -0.07   0.00    -0.01  -0.00  -0.15    -0.30   0.23  -0.01
     5   1    -0.14  -0.03   0.01    -0.02   0.02  -0.24    -0.05  -0.30  -0.02
     6   7     0.20   0.00  -0.00    -0.00  -0.02  -0.18     0.00  -0.00   0.01
     7   6    -0.04   0.07  -0.00     0.01  -0.00  -0.15     0.30   0.23  -0.01
     8   1    -0.14   0.03  -0.01     0.02   0.02  -0.24     0.05  -0.30  -0.02
     9   7    -0.16   0.00   0.00     0.00   0.01   0.20     0.00   0.14  -0.02
    10   1     0.06  -0.01  -0.01    -0.03  -0.04  -0.49    -0.25   0.27   0.01
    11   6    -0.01   0.19   0.02    -0.04  -0.03   0.00     0.00  -0.03   0.00
    12   6    -0.01  -0.19  -0.02     0.04  -0.03   0.00    -0.00  -0.03   0.00
    13   1     0.06   0.01   0.01     0.03  -0.04  -0.49     0.25   0.27   0.01
    14   1    -0.04   0.17   0.01     0.07   0.14   0.09    -0.01  -0.02   0.00
    15   1     0.01   0.47   0.17    -0.07  -0.05   0.08     0.01  -0.04  -0.03
    16   1    -0.30   0.08  -0.07    -0.13  -0.16   0.06     0.02  -0.02   0.01
    17   1    -0.04  -0.17  -0.01    -0.07   0.14   0.09     0.01  -0.02   0.00
[...]
 9887,-0.00192434,0.00860625,0.03101724,0.00653696,0.06449218,-0.139649
 28,-0.00412764,-0.04166682,-0.00898899,-0.00426201,-0.07748578,0.75231
 850,0.00258903,-0.00064159,0.00184091,-0.03798241,-0.01049756,-0.01708
 549,0.00501163,-0.00069755,0.00062226,0.00574567,-0.00120530,-0.002578
 91,0.02434417,0.00123052,0.01155461,0.01453230,-0.01112874,-0.12324856
 ,-0.12607168,-0.00065801,-0.00135981,0.00329300,-0.00142156,-0.0053148
 9,-0.02736803,0.01120032,0.12885243,-0.00133881,-0.01167910,-0.0136059
 7,-0.01633488,-0.12683253,-0.29537210,0.00039362,0.00365106,-0.0021764
 8,0.00015803,0.00362254,0.00649066,0.01714909,0.13368164,0.30249903,-0
 .06299068,-0.01672070,0.01165694,0.00310990,-0.00896545,0.00400089,0.0
 0442643,-0.00667807,-0.00544769,0.00670558,0.00237190,0.00288541,-0.00
 249514,0.00051106,-0.00017964,0.18650686,-0.01681516,-0.23388227,0.001
 52454,-0.01302647,-0.07163300,0.04981123,-0.00253696,-0.07731619,-0.04
 518007,0.00124372,0.02428978,0.02101748,0.00137542,0.00130110,-0.00252
 196,0.04313580,0.63625013,0.00807091,0.00187638,-0.13504969,0.00433725
 ,0.03671429,0.00696111,-0.00277395,-0.03237756,0.01132750,0.00015510,0
 .00720526,-0.00561092,0.00021982,-0.00124408,0.00009185,-0.06215860,0.
 00485759,0.59267093,0.00862038,-0.00677789,-0.00292034,-0.00854597,-0.
 00624976,0.00134586,-0.07376868,-0.02758585,0.00306481,-0.00016371,0.0
 1075495,0.00457445,0.00038203,-0.00011366,-0.00005550,0.00667042,0.002
 08090,-0.00143044,0.15960225,-0.00276017,-0.05284742,-0.04785807,-0.00
 588520,-0.06730046,0.01777152,-0.03002072,-0.33565848,0.04058667,0.009
 99649,0.10378979,0.04029540,-0.00007359,-0.00098779,-0.00000840,0.0010
 2496,0.02274015,-0.00859602,0.05380575,0.67034791,-0.00331159,-0.00361
 038,0.03399821,0.00440444,0.04477574,-0.01215046,-0.00495514,-0.054054
 12,-0.13837191,-0.00442915,-0.05114580,-0.09881804,-0.00013123,0.00162
 619,0.00031683,-0.00139450,-0.02268023,-0.00402764,0.01120920,0.080858
 48,0.74390530,0.00281767,0.00237967,-0.00124532,0.00502619,-0.00059647
 ,-0.00003901,-0.03701482,-0.00564915,0.00683997,0.00036304,-0.00021914
 ,-0.00043569,0.00093697,-0.00003551,-0.00007404,-0.00270765,-0.0005376
 0,0.00050243,0.00583869,-0.00088250,0.00287012,0.02395099,0.00047946,0
 .01110346,-0.01591606,-0.00065014,-0.00174657,-0.00337035,-0.00497459,
 -0.11122869,0.11729938,-0.00016655,-0.00104921,-0.00149628,-0.00003132
 ,0.00060207,-0.00074118,0.00031119,0.00170728,0.00109040,-0.00068380,-
 0.00411381,0.02790647,0.00855290,0.11549112,0.00085920,0.01040098,-0.0
 1338314,-0.00033051,-0.00367709,-0.00180416,0.00768987,0.11790143,-0.3
 0835833,-0.00004436,0.00009212,0.00039714,0.00006665,0.00068576,-0.000
 45660,0.00031489,0.00242616,-0.00010194,-0.00051400,-0.00301992,0.0051
 9668,-0.00831453,-0.12464547,0.31624218,-0.01240593,0.00322240,-0.0012
 3371,0.02225520,-0.00613567,-0.00233280,0.02250247,-0.00531052,0.00458
 866,-0.06052236,-0.01100944,-0.01233433,0.00579449,-0.00115502,0.00006
 157,-0.00371376,-0.00088334,0.00035678,-0.06075326,-0.01318804,0.01166
 709,0.00572195,-0.00129297,-0.00015493,0.08401466,0.00336791,0.0201906
 0,-0.00176817,-0.00703131,-0.03960593,-0.03363235,-0.00451053,-0.03100
 535,0.03649866,-0.01243847,-0.18601044,-0.12371159,-0.00092423,-0.0065
 3842,0.00131592,-0.00091642,-0.01266016,0.00011275,-0.01182099,-0.1780
 1125,0.11865976,-0.00151221,-0.00647366,-0.00091897,0.03267191,0.41214
 839,0.00428611,-0.00231136,-0.05052480,-0.01360252,-0.12959556,0.02660
 683,0.01224979,0.13281937,0.01775879,-0.00394700,-0.02725768,-0.275621
 37,0.00006045,-0.00079758,0.00065596,-0.00092018,0.00023763,-0.0071860
 9,0.00096602,0.02243272,-0.28340268,0.00026882,0.00115284,0.00066356,-
 0.00056854,0.00583853,0.63297248,0.00766094,-0.00153831,-0.00055032,0.
 00775100,-0.00140562,0.00223917,-0.00073567,-0.00003754,0.00011352,-0.
 04575490,-0.00936976,0.01116127,-0.00392569,0.00048798,0.00010767,-0.0
 0008743,0.00022717,0.00018927,0.00988335,-0.00050947,-0.00062124,-0.00
 133008,0.00016748,0.00002036,-0.00233427,0.00174217,-0.00130745,0.0289
 6327,-0.00094653,-0.00474095,-0.00165233,-0.00170268,-0.01098397,0.025
 23052,0.00005684,-0.00004119,-0.00069445,-0.00850338,-0.14143722,0.135
 04860,0.00049932,0.00080561,0.00002827,-0.00017849,-0.00038873,0.00164
 069,-0.00097691,-0.00035386,-0.00399449,0.00013848,0.00013722,0.000085
 62,0.00142576,0.01339559,-0.02213860,0.01017909,0.14354436,-0.00001033
 ,-0.00093948,0.00074310,-0.00029792,-0.00362049,0.00561089,-0.00003950
 ,-0.00038567,-0.00022602,0.01135967,0.13342985,-0.26133761,0.00000211,
 0.00007151,0.00023500,-0.00007223,-0.00055524,0.00043121,-0.00031407,-
 0.00185277,-0.00107347,0.00004700,0.00020891,0.00003976,0.00064531,0.0
 0622181,-0.02926271,-0.01132392,-0.13301642,0.28534631,0.00318312,-0.0
 1566430,-0.00265517,-0.00304077,0.00389762,-0.00463176,0.00582168,0.00
 289639,0.00372158,-0.00143662,-0.00079443,-0.00140905,0.00165210,0.000
 30520,0.00075256,-0.07236630,0.01870818,0.02421070,-0.00124939,-0.0023
 0586,0.00289429,-0.00042629,0.00013147,0.00001940,0.00140992,0.0005060
 7,-0.00088642,0.00012104,-0.00007525,0.00011106,0.57940491,-0.00039250
 ,-0.02417363,-0.02861588,0.00096735,-0.00345469,-0.00026371,-0.0010743
 4,-0.00195992,0.00284935,-0.00014038,0.00093666,-0.00091026,0.00044779
 ,-0.00188979,-0.00085265,0.00256640,-0.13749566,-0.05407832,-0.0000162
 5,-0.00113023,-0.00095740,-0.00009812,-0.00009365,-0.00011545,-0.00001
 867,-0.00015150,-0.00091978,0.00004892,0.00008753,0.00001595,0.0066043
 9,0.59646200,-0.00101148,-0.02835670,0.00878720,0.00013934,0.00594019,
 -0.00438823,0.00207680,0.00923869,0.00443363,-0.00003279,-0.00063243,-
 0.00201236,-0.00013479,0.00071411,0.00022941,0.01283154,-0.03444532,-0
 .17760540,-0.00051351,-0.00338192,0.00386531,0.00002463,-0.00011392,-0
 .00017700,0.00008354,0.00100229,-0.00197265,0.00006505,0.00008578,0.00
 006225,-0.02312678,-0.08573338,0.51139846,0.00525686,0.01010523,0.0024
 7513,0.00519352,-0.00419943,0.00331623,-0.00401799,-0.00405503,-0.0042
 8743,-0.00078338,0.00241668,0.00292769,-0.00041928,-0.00006361,0.00004
 622,-0.07865213,-0.02839671,0.03534604,-0.00117237,0.00115076,-0.00127
 042,0.00137581,-0.00090960,0.00094839,0.00125239,-0.00082824,-0.000664
 98,-0.00042736,0.00009123,-0.00014512,0.00661629,0.00179454,0.00726516
 ,0.57745198,-0.00506474,-0.02314570,0.03029117,-0.00035193,-0.00197646
 ,-0.00318506,-0.00090848,-0.00275482,0.00108565,-0.00003809,-0.0013673
 7,0.00064686,0.00016591,-0.00008882,0.00010397,-0.01296969,-0.12686576
 ,0.04569101,0.00056921,0.00075295,0.00102080,-0.00110718,-0.00160287,0
 .00079121,-0.00026277,0.00000050,0.00097328,-0.00000979,-0.00024883,-0
 .00008751,-0.00048553,0.01097834,-0.00957045,-0.00269729,0.60740162,0.
 00483879,0.02963516,0.00567885,0.00024794,-0.00910607,0.00508112,-0.00
 097928,-0.00591690,-0.00410912,0.00018340,0.00367985,0.00363464,0.0000
 3906,0.00010254,-0.00018859,0.01951051,0.02875477,-0.18195966,0.000057
 58,0.00047455,-0.00209275,-0.00021966,-0.00057219,0.00021993,-0.000117
 28,-0.00109875,-0.00196717,-0.00009810,-0.00025750,-0.00005889,0.00884
 229,0.00580711,-0.02978625,-0.00615166,0.08356140,0.50241823,0.0076631
 3,-0.00093968,-0.00020390,-0.00071142,0.00018581,0.00024007,0.00761960
 ,-0.00242380,-0.00261858,0.00977883,-0.00149023,0.00019364,-0.00133266
 ,0.00012456,0.00000387,-0.00010873,-0.00028664,-0.00011723,-0.04614477
 ,-0.01118868,-0.01598062,-0.00393360,0.00046145,0.00009746,-0.00232931
 ,0.00151099,0.00282646,0.00022577,0.00002355,0.00004283,-0.00043700,0.
 00004525,-0.00004635,0.00012558,-0.00005398,0.00004962,0.02959612,-0.0
 0150572,-0.00458871,0.00201693,0.00008230,-0.00000954,0.00064702,-0.00
 211128,-0.01195189,-0.02424518,-0.00101869,0.00006137,0.00398434,0.000
 15427,0.00012363,-0.00009317,0.00011606,-0.00042276,-0.00160164,-0.012
 03414,-0.15560458,-0.14013362,0.00044434,0.00080608,-0.00008120,0.0017
 8174,0.01411051,0.01967213,-0.00000523,0.00031753,0.00044035,-0.000058
 90,-0.00021924,0.00028047,0.00007279,0.00007662,-0.00009799,0.01406931
 ,0.15740234,0.00021706,0.00120918,0.00058831,0.00003481,0.00037356,-0.
 00028191,0.00051642,0.00454702,0.00670977,0.00005147,0.00182633,-0.001
 38361,0.00000428,-0.00021915,0.00005591,0.00003434,0.00060516,0.000486
 57,-0.01542491,-0.13858961,-0.24677948,-0.00001370,-0.00010303,0.00024
 255,-0.00081699,-0.00852124,-0.02998319,-0.00004776,-0.00048512,-0.000
 53224,-0.00012032,0.00012248,-0.00007880,0.00010181,-0.00003793,0.0000
 6856,0.01548237,0.13933252,0.27085528,0.00065097,0.00549203,-0.0003943
 0,-0.00006606,-0.00040746,0.00109825,-0.00045867,-0.00144852,-0.001245
 62,0.00045377,0.00037486,0.00085968,-0.00002698,-0.00001823,0.00023584
 ,0.00854767,-0.00772083,-0.00100119,0.00031782,0.00063903,-0.00094722,
 -0.00000783,-0.00000600,0.00001576,-0.00033960,0.00003195,0.00024820,-
 0.00000863,0.00003887,-0.00003568,-0.25730886,0.00625190,-0.11121968,-
 0.00109847,0.00034932,0.00050368,0.00002560,0.00002052,0.00004512,0.26
 901499,0.00079225,-0.00352275,-0.00076806,0.00000775,0.00099526,-0.001
 21829,0.00110109,0.00103498,0.00098994,-0.00015920,0.00021504,-0.00011
 478,-0.00022493,-0.00074544,0.00039965,-0.01718987,-0.00223769,-0.0152
 7046,-0.00048942,-0.00112220,0.00097538,0.00002441,0.00002220,0.000002
 42,0.00029451,0.00022173,-0.00079190,-0.00000542,-0.00001531,0.0000282
 0,0.00584984,-0.04186380,0.00363412,-0.00036360,-0.00064973,0.00057415
 ,-0.00007471,-0.00001803,-0.00002049,-0.00394027,0.04488735,-0.0000406
 0,0.00195686,-0.00058153,-0.00023670,0.00028702,0.00064390,0.00082043,
 -0.00061751,-0.00010440,-0.00012874,-0.00043070,-0.00045045,0.00020066
 ,0.00000589,-0.00002575,-0.02109614,-0.00736157,-0.02523614,-0.0000630
 3,0.00034916,-0.00004757,-0.00008326,0.00005621,0.00003937,0.00011409,
 -0.00009467,0.00047817,0.00000628,-0.00001272,0.00001207,-0.11432627,0
 .00395388,-0.10069826,0.00142172,-0.00258076,0.00051569,-0.00007304,-0
 .00002171,-0.00001966,0.12506862,0.00400109,0.11789223,0.00087518,0.00
 239299,0.00007459,-0.00005692,-0.00110615,0.00111254,0.00040470,-0.000
 96826,-0.00082230,0.00011532,0.00011590,0.00016885,-0.00023191,0.00000
 955,-0.00030020,-0.00223047,-0.00249483,-0.00250972,-0.00008117,0.0005
 8913,-0.00059105,0.00002650,0.00000267,0.00002095,-0.00000613,-0.00017
 958,0.00029430,0.00000382,0.00000870,-0.00002290,-0.06004956,0.0622621
 3,-0.01364854,0.00035839,0.00060856,0.00032574,-0.00004455,0.00001889,
 0.00001204,-0.00408004,0.02462552,-0.00692170,0.05769325,0.00165730,0.
 00171206,-0.00226604,-0.00001581,-0.00009592,0.00012245,-0.00000736,-0
 .00077628,0.00008830,0.00017421,0.00013229,0.00016200,-0.00020627,0.00
 004870,-0.00009486,0.00236385,-0.02169643,0.00051158,-0.00009631,0.000
 13608,-0.00037120,0.00005642,-0.00001281,-0.00003031,-0.00005035,-0.00
 008184,0.00001602,-0.00000350,-0.00002060,-0.00000529,0.06172887,-0.30
 072081,0.07764681,-0.00238045,0.00099410,0.00264333,-0.00000689,-0.000
 05287,0.00001920,-0.00156965,0.00249266,-0.00055351,-0.06493358,0.3218
 7759,0.00041969,-0.00103331,-0.00499594,0.00011367,0.00052227,-0.00108
 084,-0.00081697,-0.00100863,0.00060302,0.00017321,0.00019941,0.0004102
 0,-0.00007268,0.00009674,0.00060129,0.00809300,-0.03575712,0.00255852,
 0.00011198,-0.00038214,-0.00016649,0.00001014,0.00001283,0.00001479,-0
 .00016755,0.00010184,-0.00027925,-0.00000498,-0.00001626,0.00001417,-0
 .01888096,0.09148379,-0.07351821,0.00020227,-0.00233331,0.00006801,0.0
 0004773,-0.00011815,0.00002542,-0.00109690,0.01370621,-0.00305467,0.01
 781557,-0.07902251,0.08202157,0.00088603,0.00072834,0.00027745,0.00017
 939,-0.00094875,0.00104389,-0.00001626,-0.00028922,-0.00040567,0.00017
 463,0.00007005,-0.00022051,-0.00004636,0.00069866,-0.00064416,0.001095
 88,-0.00021920,-0.00249708,0.00003367,0.00012455,-0.00027052,0.0000088
 6,-0.00001439,-0.00002553,-0.00017684,-0.00020878,-0.00008631,0.000017
 15,-0.00002281,-0.00001148,-0.20171438,-0.07811841,0.12790065,0.000039
 66,0.00005204,-0.00107844,0.00000458,0.00000925,0.00000314,-0.01521971
 ,-0.01007362,0.01567096,0.00744319,0.00270771,-0.00643971,0.20741834,0
 .00014297,-0.00343348,-0.00014990,0.00091148,-0.00141113,-0.00136297,-
 0.00044637,0.00169528,0.00112633,0.00050563,0.00016503,-0.00025097,0.0
 0079411,-0.00317993,-0.00002279,0.01676482,0.00989327,-0.01399283,0.00
 016699,-0.00139193,0.00112224,0.00005989,0.00003740,-0.00001653,-0.000
 48952,0.00019512,-0.00105131,0.00002371,0.00000549,0.00004010,-0.08498
 556,-0.09426727,0.06597438,-0.00086957,-0.00117236,-0.00083401,0.00006
 427,-0.00000842,-0.00001320,0.00216021,0.00032859,0.00002872,-0.020933
 23,-0.00551115,0.01390231,0.08561995,0.09751230,-0.00021746,0.00334059
 ,0.00002529,-0.00016584,0.00069200,0.00070832,-0.00046946,-0.00046267,
 -0.00041247,-0.00031755,-0.00022275,0.00000047,-0.00015417,0.00101505,
 0.00054965,0.01894511,0.00649353,-0.02586806,0.00006057,0.00046078,-0.
 00028207,0.00004326,0.00006504,0.00004125,0.00014014,-0.00000344,0.000
 47983,0.00001338,-0.00000391,-0.00000517,0.12057442,0.06061997,-0.1376
 6523,0.00189992,-0.00350232,-0.00115667,0.00003364,-0.00001291,0.00000
 426,-0.01153586,-0.00590467,0.01058565,0.00433901,0.00111835,-0.003118
 12,-0.13282895,-0.06378844,0.15759908,-0.00071667,-0.00606737,0.000083
 67,-0.00033782,0.00164725,-0.00150292,0.00005693,0.00066330,0.00128621
 ,0.00022775,-0.00096898,-0.00107173,-0.00001069,0.00001303,0.00001457,
 0.01281984,0.00485025,0.00154705,0.00040752,-0.00036397,0.00088142,-0.
 00000512,-0.00012079,0.00015941,-0.00037788,0.00010955,0.00039757,0.00
 003423,-0.00002821,0.00004953,-0.00106600,-0.00023101,0.00040257,-0.25
 256633,0.02985110,-0.11069181,-0.00001546,-0.00004089,-0.00003827,-0.0
 0007373,-0.00021481,-0.00036276,-0.00015248,0.00025913,-0.00017141,-0.
 00007996,0.00022469,-0.00002266,0.26324162,-0.00136719,-0.00220723,0.0
 0092404,-0.00078234,0.00089240,-0.00077484,0.00016919,0.00091713,0.000
 96382,0.00020791,-0.00109298,-0.00071658,-0.00002279,0.00002228,-0.000
 00444,0.01320706,-0.00527012,0.01405147,0.00011843,0.00028432,-0.00009
 528,0.00008677,-0.00078306,-0.00039661,-0.00016313,0.00030530,0.000737
 83,0.00006070,-0.00002428,0.00001118,0.00054545,-0.00058249,-0.0006070
 5,0.03008912,-0.04601863,0.01517630,0.00000577,-0.00000907,-0.00001957
 ,0.00020797,0.00000027,0.00033719,-0.00007487,-0.00009947,-0.00004929,
 0.00007023,-0.00005086,0.00005714,-0.03307795,0.04916406,-0.00035029,-
 0.00179280,-0.00052859,0.00096912,0.00038398,-0.00008376,-0.00029424,-
 0.00025263,0.00059984,-0.00014267,-0.00026984,0.00001397,-0.00009130,-
 0.00003800,0.00004205,-0.02017366,0.01027441,-0.02647627,-0.00005320,0
 .00041090,-0.00047356,0.00019179,-0.00000285,-0.00000395,0.00014383,0.
 00007905,0.00043280,-0.00007098,0.00003599,-0.00002204,0.00188116,0.00
 231072,0.00041768,-0.11381928,0.01547357,-0.10127722,0.00000850,0.0000
 1257,0.00001267,-0.00043105,-0.00024025,0.00034644,-0.00002303,-0.0004
 1436,-0.00004414,-0.00008479,-0.00028515,-0.00021350,0.12300323,-0.024
 62461,0.11937378,0.00055173,-0.00152258,0.00037881,0.00018493,0.000558
 86,-0.00065170,0.00013175,0.00070583,0.00125797,-0.00007931,-0.0004143
 0,-0.00046473,0.00000122,0.00002007,-0.00002268,-0.00164783,0.00249156
 ,0.00002626,0.00006157,-0.00005714,-0.00016475,-0.00045604,-0.00127830
 ,-0.00055498,-0.00002739,0.00025945,0.00011012,-0.00000980,-0.00000858
 ,0.00000621,0.00016036,-0.00034631,-0.00088440,-0.16515983,0.09783412,
 0.10768424,0.00001653,0.00001957,-0.00002026,-0.00013589,-0.00005503,-
 0.00002477,-0.00002734,0.00018161,-0.00009397,-0.00001814,0.00011875,-
 0.00014253,-0.01307901,0.01359170,0.01479499,0.16911657,-0.00098108,-0
 .00325626,0.00027045,0.00071983,0.00145778,-0.00112704,-0.00122643,-0.
 00132928,0.00124569,-0.00043542,-0.00135779,-0.00098841,-0.00005092,0.
 00004235,0.00002139,-0.01344705,0.01284337,0.01224553,-0.00049753,0.00
 030503,0.00027575,-0.00135352,-0.00280815,0.00033388,0.00054626,0.0001
 0179,0.00106485,-0.00006191,0.00000716,0.00001250,0.00074445,-0.001068
 06,0.00102104,0.10433618,-0.13880248,-0.09024388,-0.00002534,0.0000042
 0,-0.00003744,-0.00020787,0.00001702,0.00028527,-0.00011333,0.00029158
 ,0.00007850,-0.00006085,0.00031858,0.00030021,-0.00002523,-0.00149328,
 -0.00246118,-0.10572964,0.14397664,-0.00081803,-0.00305200,0.00018372,
 -0.00041144,0.00044375,-0.00037627,-0.00023095,-0.00054323,0.00067156,
 -0.00000876,-0.00040463,-0.00020279,0.00003262,-0.00007241,0.00004390,
 0.01791223,-0.01213103,-0.02607406,-0.00024258,0.00026479,-0.00002640,
 -0.00027357,-0.00078147,0.00059013,0.00011225,-0.00000563,0.00042353,0
 .00003888,0.00000597,0.00000307,0.00250542,0.00306030,-0.00138023,0.10
 119345,-0.08351963,-0.12969366,0.00001514,0.00000061,-0.00000323,-0.00
 002282,-0.00006343,-0.00022558,-0.00013405,0.00027955,0.00000423,-0.00
 020203,-0.00035218,-0.00129525,-0.01004456,0.00861273,0.01026704,-0.11
 245023,0.08984716,0.14944148,0.00013586,-0.00204513,0.00059714,0.00053
 897,0.00066694,-0.00085990,0.00016212,0.00110788,0.00100426,-0.0001689
 2,-0.00055320,-0.00047900,0.00001381,-0.00000661,0.00002687,-0.0028824
 7,-0.00119527,-0.00247337,0.00006162,-0.00009532,0.00014086,-0.0001852
 2,0.00002183,-0.00027351,0.00003564,0.00017078,0.00027557,-0.00004675,
 -0.00001899,0.00000945,0.00072576,-0.00055267,-0.00017097,-0.09337335,
 -0.10548077,-0.02294663,0.00000178,-0.00001420,-0.00002065,-0.00018632
 ,0.00009550,0.00005426,0.00004020,0.00014107,0.00075788,-0.00002972,0.
 00016675,-0.00019498,-0.00830673,-0.02287205,-0.00545812,0.01041592,0.
 01786938,0.00302903,0.09304778,-0.00129855,0.00260316,0.00181421,-0.00
 028713,-0.00085045,0.00015289,-0.00003609,-0.00035826,-0.00037628,0.00
 016877,0.00026540,0.00045641,-0.00006109,0.00000065,0.00002666,-0.0053
 0737,-0.01915630,0.00116397,-0.00015372,0.00016578,-0.00017829,0.00024
 851,0.00000566,0.00018198,0.00001687,-0.00013098,-0.00008144,0.0000093
 2,-0.00004556,-0.00001751,0.00245188,0.00060621,-0.00269671,-0.1052930
 1,-0.27551031,-0.06228188,-0.00000101,-0.00001718,0.00001134,-0.000247
 83,-0.00004013,0.00041185,0.00016981,0.00138312,-0.00038315,-0.0001247
 2,0.00027548,-0.00026155,0.00352091,0.00604571,0.00140046,-0.00636963,
 -0.00925018,-0.00158920,0.11259408,0.29400817,0.00065584,0.00054196,-0
 .00514615,-0.00059017,0.00122169,0.00054217,0.00000505,-0.00057854,-0.
 00103822,0.00017599,0.00033312,-0.00020739,0.00001067,-0.00001378,0.00
 001396,0.01525775,0.03463003,0.00066817,0.00014111,-0.00021610,0.00043
 017,-0.00009938,-0.00004928,0.00059778,-0.00018713,-0.00007579,-0.0002
 7201,0.00006992,0.00011035,0.00002031,0.00052383,0.00222327,0.00008869
 ,-0.03080514,-0.07482195,-0.06539504,-0.00000160,0.00001865,0.00001281
 ,-0.00014483,0.00008117,-0.00006951,0.00080992,0.00015050,-0.00006356,
 -0.00010091,-0.00007381,0.00002274,-0.00391912,-0.01358343,-0.00238324
 ,-0.00878358,-0.01214428,-0.00235118,0.02698180,0.06224624,0.07452951\
 \0.00001078,0.00010767,-0.00000490,0.00001338,-0.00001786,-0.00000406,
 -0.00001655,-0.00000980,0.00000705,0.00001077,-0.00003730,0.00000437,0
 .00003273,0.00001854,0.00003239,-0.00000794,-0.00007190,-0.00000190,-0
 .00001661,-0.00003725,0.00000101,-0.00002745,0.00002383,-0.00003492,-0
 .00000039,0.00000891,-0.00000223,0.00002773,-0.00001273,0.00002116,0.0
 0003775,-0.00000181,0.,-0.00003765,0.00000392,0.00000560,-0.00002949,-
 0.00000781,-0.00002079,0.00003424,-0.00000298,0.00000325,-0.00000025,0
 .00001831,0.00000004,0.00000620,-0.00000037,0.00002111,-0.00003358,0.0
 0000395,-0.00000436,-0.00000657,-0.00000372,-0.00002263,0.00000289,0.0
 0001839,-0.00000019\\\@
 The archive entry for this job was punched.


 "THE TIME HAS COME", THE WALRUS SAID,
 "TO TALK OF MANY THINGS,
 OF SHOES AND SHIPS AND SEALING WAX,
 OF CABBAGES AND KINGS,
 AND WHY THE SEA IS BOILING HOT,
 AND WHETHER PIGS HAVE WINGS."
 Job cpu time:       0 days  0 hours 17 minutes 37.4 seconds.
 Elapsed time:       0 days  0 hours  1 minutes 40.8 seconds.
 File lengths (MBytes):  RWF=    172 Int=      0 D2E=      0 Chk=     10 Scr=      1
 Normal termination of Gaussian 16 at Thu Jan 22 16:55:46 2026.
