19
freq_1.log	Energy: -239452.1332618
C         -0.16222        0.00001        0.00000
C          0.56836       -1.21465        0.06823
C          0.56836        1.21466       -0.06822
C          1.95363       -1.14560        0.07219
H          0.07755       -2.18235        0.14642
N         -1.52453        0.00001       -0.00001
C          1.95363        1.14560       -0.07218
H          0.07756        2.18236       -0.14639
N          2.63756       -0.00000       -0.00001
H          2.53719       -2.06653        0.13853
C         -2.28462       -1.23325       -0.13264
C         -2.28463        1.23325        0.13264
H          2.53719        2.06653       -0.13852
H         -2.36391       -1.71470        0.85556
H         -3.28810       -0.98509       -0.48971
H         -1.79586       -1.91120       -0.83840
H         -2.36418        1.71456       -0.85561
H         -1.79573        1.91131        0.83818
H         -3.28801        0.98509        0.48998
