
                                 *****************
                                 * O   R   C   A *
                                 *****************

                                            #,                                       
                                            ###                                      
                                            ####                                     
                                            #####                                    
                                            ######                                   
                                           ########,                                 
                                     ,,################,,,,,                         
                               ,,#################################,,                 
                          ,,##########################################,,             
                       ,#########################################, ''#####,          
                    ,#############################################,,   '####,        
                  ,##################################################,,,,####,       
                ,###########''''           ''''###############################       
              ,#####''   ,,,,##########,,,,          '''####'''          '####       
            ,##' ,,,,###########################,,,                        '##       
           ' ,,###''''                  '''############,,,                           
         ,,##''                                '''############,,,,        ,,,,,,###''
      ,#''                                            '''#######################'''  
     '                                                          ''''####''''         
             ,#######,   #######,   ,#######,      ##                                
            ,#'     '#,  ##    ##  ,#'     '#,    #''#        ,####,   ,####,        
            ##       ##  ##   ,#'  ##            #'  '#       #'       #'  '#        
            ##       ##  #######   ##           ,######,      #####,   #    #        
            '#,     ,#'  ##    ##  '#,     ,#' ,#      #,     #,   #   #,  ,#        
             '#######'   ##     ##  '#######'  #'      '#     '####' # '####'        



                #########################################################
                #                        -***-                          #
                #          Department of theory and spectroscopy        #
                #                                                       #
                #                      Frank Neese                      #
                #                                                       #
                #     Directorship, Architecture, Infrastructure        #
                #                    SHARK, DRIVERS                     #
                #        Core code/Algorithms in most modules           #
                #                                                       #
                #        Max Planck Institute fuer Kohlenforschung      #
                #                Kaiser Wilhelm Platz 1                 #
                #                 D-45470 Muelheim/Ruhr                 #
                #                      Germany                          #
                #                                                       #
                #                  All rights reserved                  #
                #                        -***-                          #
                #########################################################


                         Program Version 6.0.0  -   RELEASE  -


 With contributions from (in alphabetic order):
   Daniel Aravena         : Magnetic Suceptibility
   Michael Atanasov       : Ab Initio Ligand Field Theory (pilot matlab implementation)
   Alexander A. Auer      : GIAO ZORA, VPT2 properties, NMR spectrum
   Ute Becker             : All parallelization in ORCA, NUMFREQ, NUMCALC
   Giovanni Bistoni       : ED, misc. LED, open-shell LED, HFLD
   Martin Brehm           : Molecular dynamics
   Dmytro Bykov           : pre 5.0 version of the SCF Hessian
   Marcos Casanova-Páez   : Triplet and SCS-CIS(D). UHF-(DLPNO)-IP/EA/STEOM-CCSD. UHF-CVS-IP/STEOM-CCSD
   Vijay G. Chilkuri      : MRCI spin determinant printing, contributions to CSF-ICE
   Pauline Colinet        : FMM embedding
   Dipayan Datta          : RHF DLPNO-CCSD density
   Achintya Kumar Dutta   : EOM-CC, STEOM-CC
   Nicolas Foglia         : Exact transition moments, OPA infrastructure, MCD improvements
   Dmitry Ganyushin       : Spin-Orbit,Spin-Spin,Magnetic field MRCI
   Miquel Garcia          : C-PCM and meta-GGA Hessian, CCSD/C-PCM, Gaussian charge scheme
   Tiago L. C. Gouveia    : GS-ROHF, GS-ROCIS
   Yang Guo               : DLPNO-NEVPT2, F12-NEVPT2, CIM, IAO-localization
   Andreas Hansen         : Spin unrestricted coupled pair/coupled cluster methods
   Ingolf Harden          : AUTO-CI MPn and infrastructure 
   Benjamin Helmich-Paris : MC-RPA, TRAH-(SCF,CASSCF), AVAS, COSX integrals, SCF dyn. polar.
   Lee Huntington         : MR-EOM, pCC
   Robert Izsak           : Overlap fitted RIJCOSX, COSX-SCS-MP3, EOM
   Riya Kayal             : Wick's Theorem for AUTO-CI, AUTO-CI UHF-CCSDT
   Emily Kempfer          : AUTO-CI, RHF CISDT and CCSDT
   Christian Kollmar      : KDIIS, OOCD, Brueckner-CCSD(T), CCSD density, CASPT2, CASPT2-K, improved NEVPT2
   Axel Koslowski         : Symmetry handling
   Simone Kossmann        : Meta GGA functionals, TD-DFT gradient, OOMP2, (MP2 Hessian; deprecated post 5.0)
   Lucas Lang             : DCDCAS
   Marvin Lechner         : AUTO-CI (C++ implementation), FIC-MRCC
   Spencer Leger          : CASSCF response
   Dagmar Lenk            : GEPOL surface, SMD, ORCA-2-JSON
   Dimitrios Liakos       : Extrapolation schemes; Compound Job, initial MDCI parallelization
   Dimitrios Manganas     : Further ROCIS development; embedding schemes. LFT, Crystal Embedding
   Dimitrios Pantazis     : SARC Basis sets
   Anastasios Papadopoulos: AUTO-CI, single reference methods and gradients
   Taras Petrenko         : pre 6.0 DFT Hessian and TD-DFT gradient, (ASA, deprecated), ECA, 1-Electron XAS/XES, NRVS
   Peter Pinski           : DLPNO-MP2, DLPNO-MP2 Gradient
   Christoph Reimann      : Effective Core Potentials
   Marius Retegan         : Local ZFS, SOC
   Christoph Riplinger    : Optimizer, TS searches, QM/MM, DLPNO-CCSD(T), (RO)-DLPNO pert. Triples
   Michael Roemelt        : Original ROCIS implementation
   Masaaki Saitow         : Open-shell DLPNO-CCSD energy and density
   Barbara Sandhoefer     : DKH picture change effects
   Kantharuban Sivalingam : CASSCF convergence/infrastructure, NEVPT2 and variants, FIC-MRCI
   Bernardo de Souza      : ESD, SOC TD-DFT
   Georgi Stoychev        : AutoAux, RI-MP2 NMR, DLPNO-MP2 response, X2C
   Van Anh Tran           : RI-MP2 g-tensors
   Willem Van den Heuvel  : Paramagnetic NMR
   Zikuan Wang            : NOTCH, Electric field optimization 
   Frank Wennmohs         : Technical directorship and infrastructure
   Hang Xu                : AUTO-CI-Response properties 


 We gratefully acknowledge several colleagues who have allowed us to
 interface, adapt or use parts of their codes:
   Stefan Grimme, W. Hujo, H. Kruse, P. Pracht,  : VdW corrections, initial TS optimization,
                  C. Bannwarth, S. Ehlert,         DFT functionals, gCP, sTDA/sTD-DF
                  L. Wittmann, M. Mueller
   Ed Valeev, F. Pavosevic, A. Kumar             : LibInt (2-el integral package), F12 methods
   Garnet Chan, S. Sharma, J. Yang, R. Olivares  : DMRG
   Ulf Ekstrom                                   : XCFun DFT Library
   Mihaly Kallay                                 : mrcc  (arbitrary order and MRCC methods)
   Frank Weinhold                                : gennbo (NPA and NBO analysis)
   Simon Mueller                                 : openCOSMO-RS
   Christopher J. Cramer and Donald G. Truhlar   : smd solvation model
   Lars Goerigk                                  : TD-DFT with DH, B97 family of functionals
   V. Asgeirsson, H. Jonsson                     : NEB implementation
   FAccTs GmbH                                   : IRC, NEB, NEB-TS, DLPNO-Multilevel, CI-OPT
                                                   MM, QMMM, 2- and 3-layer-ONIOM, Crystal-QMMM,
                                                   LR-CPCM, SF, NACMEs, symmetry and pop. for TD-DFT,
                                                   nearIR, NL-DFT gradient (VV10), updates on ESD,
                                                   ML-optimized integration grids, MBIS, APM,
                                                   GOAT, DOCKER, SOLVATOR, interface openCOSMO-RS
   S Lehtola, MJT Oliveira, MAL Marques          : LibXC Library
   Liviu Ungur et al                             : ANISO software


 Your calculation uses the libint2 library for the computation of 2-el integrals
 For citations please refer to: http://libint.valeyev.net

 Your ORCA version has been built with support for libXC version: 6.2.2
 For citations please refer to: https://libxc.gitlab.io

 This ORCA versions uses:
   CBLAS   interface :  Fast vector & matrix operations
   LAPACKE interface :  Fast linear algebra routines
   SCALAPACK package :  Parallel linear algebra routines
   Shared memory     :  Shared parallel matrices
   BLAS/LAPACK       :  OpenBLAS 0.3.27  USE64BITINT DYNAMIC_ARCH NO_AFFINITY SapphireRapids SINGLE_THREADED
        Core in use  :  SapphireRapids
   Copyright (c) 2011-2014, The OpenBLAS Project


NOTE: MaxCore=1000 MB was set to SCF,MP2,MDCI,CIPSI,MRCI and CIS
      => If you want to overwrite this, your respective input block should be placed after the MaxCore statement
Your calculation utilizes the semiempirical GFN2-xTB method
Please cite in your paper:
C. Bannwarth, Ehlert S., S. Grimme,  J. Chem. Theory Comput., 15, (2019), 1652.
   

================================================================================

================================================================================
                                        WARNINGS
                       Please study these warnings very carefully!
================================================================================


WARNING: Geometry Optimization
  ===> : Switching off AutoStart
         For restart on a previous wavefunction, please use MOREAD

WARNING: Found dipole moment calculation with XTB calculation
  ===> : Switching off dipole moment calculation

Environment variable XTBEXE for xtb has been set!

================================================================================
                                       INPUT FILE
================================================================================
NAME = goat_water.inp
|  1> !XTB GOAT
|  2> !alpb(water)
|  3> %maxcore 1000
|  4> %PAL nprocs 4
|  5> end
|  6> * xyz 1 2
|  7>  C                 -0.22878512    0.16167565    0.00000000
|  8>  C                 -0.13076385   -0.54158785    1.20144230
|  9>  C                 -0.13076385   -0.54158785   -1.20144230
| 10>  C                  0.06267220   -1.92940596    1.17207987
| 11>  H                 -0.20261666   -0.02606055    2.13630527
| 12>  N                 -0.43171293    1.61760158    0.00000000
| 13>  C                  0.06267220   -1.92940596   -1.17207987
| 14>  H                 -0.20261666   -0.02606055   -2.13630527
| 15>  N                  0.15335331   -2.57998433    0.00000000
| 16>  H                  0.13867246   -2.47468863    2.08957144
| 17>  C                  0.18697456    2.19857130    1.20024998
| 18>  C                  0.18697456    2.19857130   -1.20024998
| 19>  H                  0.13867246   -2.47468863   -2.08957144
| 20>  H                 -0.26336254    1.77568856    2.07390133
| 21>  H                  1.23535819    1.98458115    1.20024995
| 22>  H                  0.03926520    3.25832690    1.20024999
| 23>  H                 -0.26336254    1.77568856   -2.07390133
| 24>  H                  1.23535819    1.98458115   -1.20024995
| 25>  H                  0.03926520    3.25832690   -1.20024999
| 26> *
| 27> 
| 28>                          ****END OF INPUT****
================================================================================

                       *****************************
                       * Geometry Optimization Run *
                       *****************************


                       *********************************
                       *              GOAT             *
                       * Global Optimization Algorithm *
                       *********************************

Geometry optimization settings:
Update method            Update   .... BFGS
Choice of coordinates    CoordSys .... (2022) Redundant Internals
Initial Hessian          InHess   .... Almloef's Model
Max. no of cycles        MaxIter  .... 57

Convergence Tolerances:
Energy Change            TolE     ....  5.0000e-06 Eh
Max. Gradient            TolMAXG  ....  3.0000e-04 Eh/bohr
RMS Gradient             TolRMSG  ....  1.0000e-04 Eh/bohr
Max. Displacement        TolMAXD  ....  4.0000e-03 bohr
RMS Displacement         TolRMSD  ....  2.0000e-03 bohr
Strict Convergence                .... True

------------------------------------------------------------------------------
                        ORCA OPTIMIZATION COORDINATE SETUP
------------------------------------------------------------------------------

The optimization will be done in redundant internal coordinates (2022)
Making redundant internal coordinates   ...  (2022 redundants) done
Evaluating the initial hessian          ...  (Almloef) done
Evaluating the coordinates              ...  done
Calculating the B-matrix                .... done
Calculating the G-matrix                .... done
Diagonalizing the G-matrix              .... done
Small eigenvalue found = 2.093e-02
The first mode is                       ....   33
The number of degrees of freedom        ....   51

    -----------------------------------------------------------------
                    Redundant Internal Coordinates


    -----------------------------------------------------------------
         Definition                    Initial Value    Approx d2E/dq
    -----------------------------------------------------------------
      1. B(C   1,C   0)                  1.3956         0.612113   
      2. B(C   2,C   0)                  1.3956         0.612113   
      3. B(C   3,C   1)                  1.4015         0.598859   
      4. B(H   4,C   1)                  1.0700         0.387554   
      5. B(N   5,C   0)                  1.4700         0.417100   
      6. B(C   6,C   2)                  1.4015         0.598859   
      7. B(H   7,C   2)                  1.0700         0.387554   
      8. B(N   8,C   6)                  1.3436         0.663609   
      9. B(N   8,C   3)                  1.3436         0.663609   
     10. B(H   9,C   3)                  1.0700         0.387554   
     11. B(C  10,N   5)                  1.4700         0.417100   
     12. B(C  11,N   5)                  1.4700         0.417100   
     13. B(H  12,C   6)                  1.0700         0.387554   
     14. B(H  13,C  10)                  1.0700         0.387554   
     15. B(H  14,C  10)                  1.0700         0.387554   
     16. B(H  15,C  10)                  1.0700         0.387554   
     17. B(H  16,C  11)                  1.0700         0.387554   
     18. B(H  17,C  11)                  1.0700         0.387554   
     19. B(H  18,C  11)                  1.0700         0.387554   
     20. A(C   1,C   0,C   2)          118.8332         0.432072   
     21. A(C   1,C   0,N   5)          120.5834         0.400954   
     22. A(C   2,C   0,N   5)          120.5834         0.400954   
     23. A(C   0,C   1,H   4)          120.3085         0.356558   
     24. A(C   0,C   1,C   3)          119.3830         0.430376   
     25. A(C   3,C   1,H   4)          120.3085         0.355236   
     26. A(C   0,C   2,C   6)          119.3830         0.430376   
     27. A(C   6,C   2,H   7)          120.3085         0.355236   
     28. A(C   0,C   2,H   7)          120.3085         0.356558   
     29. A(N   8,C   3,H   9)          119.7660         0.359252   
     30. A(C   1,C   3,H   9)          119.7660         0.355236   
     31. A(C   1,C   3,N   8)          120.4680         0.433814   
     32. A(C   0,N   5,C  10)          109.4712         0.372659   
     33. A(C  10,N   5,C  11)          109.4712         0.372659   
     34. A(C   0,N   5,C  11)          109.4712         0.372659   
     35. A(C   2,C   6,N   8)          120.4680         0.433814   
     36. A(N   8,C   6,H  12)          119.7660         0.359252   
     37. A(C   2,C   6,H  12)          119.7660         0.355236   
     38. A(C   3,N   8,C   6)          121.4649         0.439017   
     39. A(H  14,C  10,H  15)          109.4712         0.297665   
     40. A(H  13,C  10,H  15)          109.4712         0.297665   
     41. A(N   5,C  10,H  15)          109.4712         0.332290   
     42. A(H  13,C  10,H  14)          109.4712         0.297665   
     43. A(N   5,C  10,H  14)          109.4712         0.332290   
     44. A(N   5,C  10,H  13)          109.4712         0.332290   
     45. A(H  16,C  11,H  18)          109.4712         0.297665   
     46. A(N   5,C  11,H  18)          109.4712         0.332290   
     47. A(H  16,C  11,H  17)          109.4712         0.297665   
     48. A(N   5,C  11,H  17)          109.4712         0.332290   
     49. A(H  17,C  11,H  18)          109.4712         0.297665   
     50. A(N   5,C  11,H  16)          109.4712         0.332290   
     51. D(C   3,C   1,C   0,N   5)   -179.9999         0.025888   
     52. D(C   3,C   1,C   0,C   2)      0.0001         0.025888   
     53. D(H   4,C   1,C   0,C   2)    179.9999         0.025888   
     54. D(H   4,C   1,C   0,N   5)     -0.0001         0.025888   
     55. D(H   7,C   2,C   0,C   1)   -179.9999         0.025888   
     56. D(H   7,C   2,C   0,N   5)      0.0001         0.025888   
     57. D(C   6,C   2,C   0,C   1)     -0.0001         0.025888   
     58. D(C   6,C   2,C   0,N   5)    179.9999         0.025888   
     59. D(H   9,C   3,C   1,H   4)      0.0003         0.024718   
     60. D(H   9,C   3,C   1,C   0)   -179.9999         0.024718   
     61. D(N   8,C   3,C   1,H   4)   -179.9997         0.024718   
     62. D(N   8,C   3,C   1,C   0)      0.0001         0.024718   
     63. D(C  11,N   5,C   0,C   1)    150.0000         0.013714   
     64. D(C  10,N   5,C   0,C   2)   -150.0000         0.013714   
     65. D(C  10,N   5,C   0,C   1)     30.0000         0.013714   
     66. D(C  11,N   5,C   0,C   2)    -30.0000         0.013714   
     67. D(H  12,C   6,C   2,H   7)     -0.0003         0.024718   
     68. D(H  12,C   6,C   2,C   0)    179.9999         0.024718   
     69. D(N   8,C   6,C   2,H   7)    179.9997         0.024718   
     70. D(N   8,C   6,C   2,C   0)     -0.0001         0.024718   
     71. D(C   3,N   8,C   6,H  12)   -179.9997         0.032659   
     72. D(C   3,N   8,C   6,C   2)      0.0003         0.032659   
     73. D(C   6,N   8,C   3,H   9)    179.9997         0.032659   
     74. D(C   6,N   8,C   3,C   1)     -0.0003         0.032659   
     75. D(H  15,C  10,N   5,C   0)   -180.0000         0.014836   
     76. D(H  14,C  10,N   5,C  11)    -60.0000         0.014836   
     77. D(H  14,C  10,N   5,C   0)     60.0000         0.014836   
     78. D(H  13,C  10,N   5,C  11)   -180.0000         0.014836   
     79. D(H  13,C  10,N   5,C   0)    -60.0000         0.014836   
     80. D(H  16,C  11,N   5,C  10)    180.0000         0.014836   
     81. D(H  16,C  11,N   5,C   0)     60.0000         0.014836   
     82. D(H  18,C  11,N   5,C   0)    180.0000         0.014836   
     83. D(H  17,C  11,N   5,C  10)     60.0000         0.014836   
     84. D(H  17,C  11,N   5,C   0)    -60.0000         0.014836   
    -----------------------------------------------------------------

Number of atoms                         .... 19
Number of degrees of freedom            .... 84


         *************************************************************
         *                GEOMETRY OPTIMIZATION CYCLE   1            *
         *************************************************************
---------------------------------
CARTESIAN COORDINATES (ANGSTROEM)
---------------------------------
  C    -0.228785    0.161676    0.000000
  C    -0.130764   -0.541588    1.201442
  C    -0.130764   -0.541588   -1.201442
  C     0.062672   -1.929406    1.172080
  H    -0.202617   -0.026061    2.136305
  N    -0.431713    1.617602    0.000000
  C     0.062672   -1.929406   -1.172080
  H    -0.202617   -0.026061   -2.136305
  N     0.153353   -2.579984    0.000000
  H     0.138672   -2.474689    2.089571
  C     0.186975    2.198571    1.200250
  C     0.186975    2.198571   -1.200250
  H     0.138672   -2.474689   -2.089571
  H    -0.263363    1.775689    2.073901
  H     1.235358    1.984581    1.200250
  H     0.039265    3.258327    1.200250
  H    -0.263363    1.775689   -2.073901
  H     1.235358    1.984581   -1.200250
  H     0.039265    3.258327   -1.200250

----------------------------
CARTESIAN COORDINATES (A.U.)
----------------------------
  NO LB    ZA    FRAG    MASS        X           Y           Z
   0 C   6.0000    1    12.011   -0.432341    0.305523    0.000000
   1 C   6.0000    1    12.011   -0.247108   -1.023453    2.270397
   2 C   6.0000    1    12.011   -0.247108   -1.023453   -2.270397
   3 C   6.0000    1    12.011    0.118433   -3.646049    2.214910
   4 H   1.0000    1     1.008   -0.382890   -0.049247    4.037032
   5 N   7.0000    1    14.007   -0.815819    3.056824    0.000000
   6 C   6.0000    1    12.011    0.118433   -3.646049   -2.214910
   7 H   1.0000    1     1.008   -0.382890   -0.049247   -4.037032
   8 N   7.0000    1    14.007    0.289796   -4.875464    0.000000
   9 H   1.0000    1     1.008    0.262053   -4.676484    3.948718
  10 C   6.0000    1    12.011    0.353331    4.154698    2.268144
  11 C   6.0000    1    12.011    0.353331    4.154698   -2.268144
  12 H   1.0000    1     1.008    0.262053   -4.676484   -3.948718
  13 H   1.0000    1     1.008   -0.497683    3.355565    3.919106
  14 H   1.0000    1     1.008    2.334489    3.750315    2.268144
  15 H   1.0000    1     1.008    0.074200    6.157345    2.268144
  16 H   1.0000    1     1.008   -0.497683    3.355565   -3.919106
  17 H   1.0000    1     1.008    2.334489    3.750315   -2.268144
  18 H   1.0000    1     1.008    0.074200    6.157345   -2.268144

      -----------------------------------------------------------      
     |                   =====================                   |     
     |                           x T B                           |     
     |                   =====================                   |     
     |                         S. Grimme                         |     
     |          Mulliken Center for Theoretical Chemistry        |     
     |                    University of Bonn                     |     
      -----------------------------------------------------------      

   * xtb version 6.6.1 (8d0f1dd) compiled by 'stahn@M-Bot' on 2023-08-01

   xtb is free software: you can redistribute it and/or modify it under
   the terms of the GNU Lesser General Public License as published by
   the Free Software Foundation, either version 3 of the License, or
   (at your option) any later version.
   
   xtb is distributed in the hope that it will be useful,
   but WITHOUT ANY WARRANTY; without even the implied warranty of
   MERCHANTABILITY or FITNESS FOR A PARTICULAR PURPOSE.  See the
   GNU Lesser General Public License for more details.
   
   Cite this work as:
   * C. Bannwarth, E. Caldeweyher, S. Ehlert, A. Hansen, P. Pracht,
     J. Seibert, S. Spicher, S. Grimme, WIREs Comput. Mol. Sci., 2020, 11,
     e01493. DOI: 10.1002/wcms.1493
   
   for GFN2-xTB:
   * C. Bannwarth, S. Ehlert and S. Grimme., J. Chem. Theory Comput., 2019,
     15, 1652-1671. DOI: 10.1021/acs.jctc.8b01176
   for GFN1-xTB:
   * S. Grimme, C. Bannwarth, P. Shushkov, J. Chem. Theory Comput., 2017,
     13, 1989-2009. DOI: 10.1021/acs.jctc.7b00118
   for GFN0-xTB:
   * P. Pracht, E. Caldeweyher, S. Ehlert, S. Grimme, ChemRxiv, 2019, preprint.
     DOI: 10.26434/chemrxiv.8326202.v1
   for GFN-FF:
   * S. Spicher and S. Grimme, Angew. Chem. Int. Ed., 2020, 59, 15665-15673.
     DOI: 10.1002/anie.202004239
   
   for ALPB and GBSA implicit solvation:
   * S. Ehlert, M. Stahn, S. Spicher, S. Grimme, J. Chem. Theory Comput.,
     2021, 17, 4250-4261. DOI: 10.1021/acs.jctc.1c00471
   
   for DFT-D4:
   * E. Caldeweyher, C. Bannwarth and S. Grimme, J. Chem. Phys., 2017,
     147, 034112. DOI: 10.1063/1.4993215
   * E. Caldeweyher, S. Ehlert, A. Hansen, H. Neugebauer, S. Spicher,
     C. Bannwarth and S. Grimme, J. Chem. Phys., 2019, 150, 154122.
     DOI: 10.1063/1.5090222
   * E. Caldeweyher, J.-M. Mewes, S. Ehlert and S. Grimme, Phys. Chem. Chem. Phys.
     2020, 22, 8499-8512. DOI: 10.1039/D0CP00502A
   
   for sTDA-xTB:
   * S. Grimme and C. Bannwarth, J. Chem. Phys., 2016, 145, 054103.
     DOI: 10.1063/1.4959605
   
   in the mass-spec context:
   * V. Asgeirsson, C. Bauer and S. Grimme, Chem. Sci., 2017, 8, 4879.
     DOI: 10.1039/c7sc00601b
   * J. Koopman and S. Grimme, ACS Omega 2019, 4, 12, 15120-15133.
     DOI: 10.1021/acsomega.9b02011
   
   for metadynamics refer to:
   * S. Grimme, J. Chem. Theory Comput., 2019, 155, 2847-2862
     DOI: 10.1021/acs.jctc.9b00143
   
   for SPH calculations refer to:
   * S. Spicher and S. Grimme, J. Chem. Theory Comput., 2021, 17, 1701-1714
     DOI: 10.1021/acs.jctc.0c01306
   
   with help from (in alphabetical order)
   P. Atkinson, C. Bannwarth, F. Bohle, G. Brandenburg, E. Caldeweyher
   M. Checinski, S. Dohm, S. Ehlert, S. Ehrlich, I. Gerasimov, C. Hölzer
   A. Katbashev, J. Koopman, C. Lavigne, S. Lehtola, F. März, M. Müller,
   F. Musil, H. Neugebauer, J. Pisarek, C. Plett, P. Pracht, F. Pultar,
   J. Seibert, P. Shushkov, S. Spicher, M. Stahn, M. Steiner, T. Strunk,
   J. Stückrath, T. Rose, and J. Unsleber
   
 * started run on 2026/01/22 at 15:35:05.542     

           -------------------------------------------------
          |                Calculation Setup                |
           -------------------------------------------------

          program call               : /leonardo/home/userexternal/morza000/xtb/xtb-6.6.1/bin/xtb goat_water_XTB.xyz --grad -c 1 -u 1 -P 4 --namespace goat_water --input goat_water_XTB.input.tmp --alpb WATER --acc 0.200000
          hostname                   : lrdn4915
          calculation namespace      : goat_water
          coordinate file            : goat_water_XTB.xyz
          omp threads                :                     4

   ID    Z sym.   atoms
    1    6 C      1-4, 7, 11, 12
    2    1 H      5, 8, 10, 13-19
    3    7 N      6, 9

           -------------------------------------------------
          |                 G F N 2 - x T B                 |
           -------------------------------------------------

        Reference                      10.1021/acs.jctc.8b01176
      * Hamiltonian:
        H0-scaling (s, p, d)           1.850000    2.230000    2.230000
        zeta-weighting                 0.500000
      * Dispersion:
        s8                             2.700000
        a1                             0.520000
        a2                             5.000000
        s9                             5.000000
      * Repulsion:
        kExp                           1.500000    1.000000
        rExp                           1.000000
      * Coulomb:
        alpha                          2.000000
        third order                    shell-resolved
        anisotropic                    true
        a3                             3.000000
        a5                             4.000000
        cn-shift                       1.200000
        cn-exp                         4.000000
        max-rad                        5.000000

      * Solvation model:               ALPB
        Solvent                        WATER
        Parameter file                 internal GFN2-xTB/ALPB
        Dielectric constant                8.0200E+01
        Reference state                gsolv [1 M gas/solution]
        Free energy shift                  1.0808E-03 Eh       6.7819E-01 kcal/mol
        Temperature                        2.9815E+02 K
        Density                            1.0000E+00 kg/L
        Solvent mass                       1.8000E+01 g/mol
        Interaction kernel             P16
        Born radius scaling (c1)           1.4744E+00
        Born radii integrator          GBOBC
        Born offset                        0.0000E+00 a0       0.0000E+00 AA
        H-bond correction              true
        Ion screening                  false
        Surface tension                    1.0000E-05 Eh       1.5569E+01 dyn/cm
        Grid points                               230 per atom

          ...................................................
          :                      SETUP                      :
          :.................................................:
          :  # basis functions                  46          :
          :  # atomic orbitals                  46          :
          :  # shells                           28          :
          :  # electrons                        47          :
          :  max. iterations                   250          :
          :  Hamiltonian                  GFN2-xTB          :
          :  restarted?                      false          :
          :  GBSA solvation                   true          :
          :  PC potential                    false          :
          :  electronic temp.          300.0000000     K    :
          :  accuracy                    0.2000000          :
          :  -> integral cutoff          0.3198970E+02      :
          :  -> integral neglect         0.2000000E-08      :
          :  -> SCF convergence          0.2000000E-06 Eh   :
          :  -> wf. convergence          0.2000000E-04 e    :
          :  Broyden damping             0.4000000          :
          ...................................................

 iter      E             dE          RMSdq      gap      omega  full diag
   1    -25.8393399 -0.258393E+02  0.438E+00    2.86       0.0  T
   2    -25.8179511  0.213888E-01  0.353E+00    3.26       1.0  T
   3    -25.8741276 -0.561765E-01  0.235E+00    3.27       1.0  T
   4    -25.9022234 -0.280958E-01  0.102E+00    3.44       1.0  T
   5    -25.9013058  0.917642E-03  0.965E-01    3.36       1.0  T
   6    -25.9191330 -0.178272E-01  0.156E-01    3.48       1.0  T
   7    -25.9143912  0.474181E-02  0.493E-01    3.48       1.0  T
   8    -25.9192185 -0.482733E-02  0.542E-02    3.47       1.0  T
   9    -25.9191432  0.752797E-04  0.699E-02    3.47       1.0  T
  10    -25.9192356 -0.924276E-04  0.763E-03    3.47       3.0  T
  11    -25.9192357 -0.199383E-07  0.642E-03    3.47       3.6  T
  12    -25.9192359 -0.275957E-06  0.464E-03    3.47       4.9  T
  13    -25.9192362 -0.231894E-06  0.275E-03    3.47       8.3  T
  14    -25.9192363 -0.136586E-06  0.244E-04    3.47      94.1  T
  15    -25.9192363 -0.107399E-10  0.150E-04    3.47     153.1  T
  16    -25.9192363 -0.374634E-09  0.518E-05    3.47     442.6  T

   *** convergence criteria satisfied after 16 iterations ***

         #    Occupation            Energy/Eh            Energy/eV
      -------------------------------------------------------------
         1        2.0000           -0.7089917             -19.2926
       ...           ...                  ...                  ...
        18        2.0000           -0.4936514             -13.4329
        19        2.0000           -0.4874222             -13.2634
        20        2.0000           -0.4759102             -12.9502
        21        2.0000           -0.4620777             -12.5738
        22        2.0000           -0.4567148             -12.4278
        23        1.9861           -0.4269096             -11.6168
        24        1.0139           -0.4188180             -11.3966 (HOMO)
        25                         -0.2912246              -7.9246 (LUMO)
        26                         -0.2808602              -7.6426
        27                         -0.1592786              -4.3342
        28                         -0.0401307              -1.0920
        29                          0.0308431               0.8393
       ...                                ...                  ...
        46                          0.5590229              15.2118
      -------------------------------------------------------------
                  HL-Gap            0.1275934 Eh            3.4720 eV
             Fermi-level           -0.3889426 Eh          -10.5837 eV

 SCC (total)                   0 d,  0 h,  0 min,  0.030 sec
 SCC setup                      ...        0 min,  0.001 sec (  1.733%)
 Dispersion                     ...        0 min,  0.000 sec (  0.692%)
 classical contributions        ...        0 min,  0.000 sec (  0.245%)
 integral evaluation            ...        0 min,  0.001 sec (  3.215%)
 iterations                     ...        0 min,  0.025 sec ( 84.061%)
 molecular gradient             ...        0 min,  0.003 sec (  8.606%)
 printout                       ...        0 min,  0.000 sec (  1.381%)

         :::::::::::::::::::::::::::::::::::::::::::::::::::::
         ::                     SUMMARY                     ::
         :::::::::::::::::::::::::::::::::::::::::::::::::::::
         :: total energy             -25.516284655217 Eh    ::
         :: total w/o Gsasa/hb       -25.508998267651 Eh    ::
         :: gradient norm              0.110482449078 Eh/a0 ::
         :: HOMO-LUMO gap              3.471993375490 eV    ::
         ::.................................................::
         :: SCC energy               -25.919236302486 Eh    ::
         :: -> isotropic ES            0.087801405220 Eh    ::
         :: -> anisotropic ES         -0.010715059215 Eh    ::
         :: -> anisotropic XC          0.020147622757 Eh    ::
         :: -> dispersion             -0.013475467137 Eh    ::
         :: -> Gsolv                  -0.082462178801 Eh    ::
         ::    -> Gelec               -0.075175791235 Eh    ::
         ::    -> Gsasa               -0.004262239153 Eh    ::
         ::    -> Ghb                 -0.004104908111 Eh    ::
         ::    -> Gshift               0.001080759698 Eh    ::
         :: repulsion energy           0.402894243454 Eh    ::
         :: add. restraining           0.000000000000 Eh    ::
         :: total charge               1.000000000000 e     ::
         :::::::::::::::::::::::::::::::::::::::::::::::::::::


Property printout bound to 'properties.out'

           -------------------------------------------------
          | TOTAL ENERGY              -25.516284655217 Eh   |
          | GRADIENT NORM               0.110482449078 Eh/α |
          | HOMO-LUMO GAP               3.471993375490 eV   |
           -------------------------------------------------

------------------------------------------------------------------------
 * finished run on 2026/01/22 at 15:35:05.598     
------------------------------------------------------------------------
 total:
 * wall-time:     0 d,  0 h,  0 min,  0.055 sec
 *  cpu-time:     0 d,  0 h,  0 min,  0.104 sec
 * ratio c/w:     1.871 speedup
 SCF:
 * wall-time:     0 d,  0 h,  0 min,  0.030 sec
 *  cpu-time:     0 d,  0 h,  0 min,  0.060 sec
 * ratio c/w:     1.984 speedup


-------------------------   --------------------
FINAL SINGLE POINT ENERGY       -25.516284655220
-------------------------   --------------------


-------------
DIPOLE MOMENT
-------------
                                X             Y             Z
Total Dipole Moment    :      0.42100       1.24400       0.00000
                        -----------------------------------------
Magnitude (a.u.)       :      1.31331
Magnitude (Debye)      :      3.33816

------------------------------------------------------------------------------
                         ORCA GEOMETRY RELAXATION STEP
------------------------------------------------------------------------------

Reading the OPT-File                    .... done
Getting information on internals        .... done
Copying old internal coords+grads       .... done
Making the new internal coordinates     .... (2022 redundants) done
Validating the new internal coordinates .... (2022 redundants) done
Calculating the B-matrix                .... done
Calculating the G,G- and P matrices     .... done
Transforming gradient to internals      .... done
Projecting the internal gradient        .... done
Number of atoms                         ....  19
Number of internal coordinates          ....  84
Current Energy                          ....   -25.516284655 Eh
Current gradient norm                   ....     0.110482449 Eh/bohr
Maximum allowed component of the step   ....  0.300
Current trust radius                    ....  0.300
Evaluating the initial hessian          ....  (Almloef) done
Projecting the Hessian                  .... done
Forming the augmented Hessian           .... done
Diagonalizing the augmented Hessian     .... done
Last element of RFO vector              ....  0.907070080
Lowest eigenvalues of augmented Hessian:
 -0.027449381  0.013714219  0.014835992  0.015437368  0.022207158
Length of the computed step             ....  0.464109294
Warning: the length of the step is outside the trust region - taking restricted step instead
The input lambda is                     ....     0.012714
   iter:   5  x=   -0.013935  g=   35.586650 f(x)=     0.476487
   iter:  10  x=   -0.079161  g=    1.122136 f(x)=     0.000198
The output lambda is                    ....    -0.079161 (13 iterations)
The final length of the internal step   ....  0.300000000
Converting the step to Cartesian space:
 Initial RMS(Int)=    0.0327326835
Transforming coordinates:
 Iter   0:  RMS(Cart)=    0.0771905534 RMS(Int)=    2.1573927473
 Iter   5:  RMS(Cart)=    0.0000001486 RMS(Int)=    0.0000000965
done
Storing new coordinates                 .... done

                                .--------------------.
          ----------------------|Geometry convergence|-------------------------
          Item                value                   Tolerance       Converged
          ---------------------------------------------------------------------
          RMS gradient        0.0094168596            0.0001000000      NO
          MAX gradient        0.0376438470            0.0003000000      NO
          RMS step            0.0327326835            0.0020000000      NO
          MAX step            0.1108349216            0.0040000000      NO
          ........................................................
          Max(Bonds)      0.0276      Max(Angles)    4.23
          Max(Dihed)        6.35      Max(Improp)    0.00
          ---------------------------------------------------------------------

The optimization has not yet converged - more geometry cycles are needed


    ---------------------------------------------------------------------------
                         Redundant Internal Coordinates
                            (Angstroem and degrees)

        Definition                    Value    dE/dq     Step     New-Value
    ----------------------------------------------------------------------------
     1. B(C   1,C   0)                1.3956 -0.002127  0.0025    1.3980   
     2. B(C   2,C   0)                1.3956 -0.002127  0.0025    1.3980   
     3. B(C   3,C   1)                1.4015  0.014056 -0.0110    1.3906   
     4. B(H   4,C   1)                1.0700 -0.002207  0.0025    1.0725   
     5. B(N   5,C   0)                1.4700  0.019442 -0.0207    1.4493   
     6. B(C   6,C   2)                1.4015  0.014056 -0.0110    1.3906   
     7. B(H   7,C   2)                1.0700 -0.002207  0.0025    1.0725   
     8. B(N   8,C   6)                1.3436  0.037644 -0.0276    1.3160   
     9. B(N   8,C   3)                1.3436  0.037644 -0.0276    1.3160   
    10. B(H   9,C   3)                1.0700 -0.004367  0.0050    1.0750   
    11. B(C  10,N   5)                1.4700  0.008022 -0.0086    1.4614   
    12. B(C  11,N   5)                1.4700  0.008022 -0.0086    1.4614   
    13. B(H  12,C   6)                1.0700 -0.004367  0.0050    1.0750   
    14. B(H  13,C  10)                1.0700 -0.009947  0.0113    1.0813   
    15. B(H  14,C  10)                1.0700 -0.013941  0.0158    1.0858   
    16. B(H  15,C  10)                1.0700 -0.012099  0.0137    1.0837   
    17. B(H  16,C  11)                1.0700 -0.009947  0.0113    1.0813   
    18. B(H  17,C  11)                1.0700 -0.013941  0.0158    1.0858   
    19. B(H  18,C  11)                1.0700 -0.012099  0.0137    1.0837   
    20. A(C   1,C   0,C   2)          118.83  0.013016   -1.22    117.62   
    21. A(C   1,C   0,N   5)          120.58 -0.006508    0.61    121.19   
    22. A(C   2,C   0,N   5)          120.58 -0.006508    0.61    121.19   
    23. A(C   0,C   1,H   4)          120.31 -0.008947    1.09    121.40   
    24. A(C   0,C   1,C   3)          119.38  0.002126   -0.10    119.28   
    25. A(C   3,C   1,H   4)          120.31  0.006820   -0.99    119.32   
    26. A(C   0,C   2,C   6)          119.38  0.002126   -0.10    119.28   
    27. A(C   6,C   2,H   7)          120.31  0.006820   -0.99    119.32   
    28. A(C   0,C   2,H   7)          120.31 -0.008947    1.09    121.40   
    29. A(N   8,C   3,H   9)          119.77  0.007514   -0.89    118.88   
    30. A(C   1,C   3,H   9)          119.77 -0.001594    0.31    120.07   
    31. A(C   1,C   3,N   8)          120.47 -0.005920    0.58    121.05   
    32. A(C   0,N   5,C  10)          109.47 -0.015379    4.23    113.71   
    33. A(C  10,N   5,C  11)          109.47  0.008968    0.27    109.74   
    34. A(C   0,N   5,C  11)          109.47 -0.015379    4.23    113.71   
    35. A(C   2,C   6,N   8)          120.47 -0.005920    0.58    121.05   
    36. A(N   8,C   6,H  12)          119.77  0.007514   -0.89    118.88   
    37. A(C   2,C   6,H  12)          119.77 -0.001594    0.31    120.07   
    38. A(C   3,N   8,C   6)          121.46 -0.005428    0.26    121.73   
    39. A(H  14,C  10,H  15)          109.47  0.004701   -0.78    108.69   
    40. A(H  13,C  10,H  15)          109.47 -0.001042   -0.07    109.40   
    41. A(N   5,C  10,H  15)          109.47  0.004724   -0.79    108.68   
    42. A(H  13,C  10,H  14)          109.47  0.001350    0.12    109.59   
    43. A(N   5,C  10,H  14)          109.47 -0.002974    0.53    110.01   
    44. A(N   5,C  10,H  13)          109.47 -0.006758    0.99    110.46   
    45. A(H  16,C  11,H  18)          109.47 -0.001042   -0.07    109.40   
    46. A(N   5,C  11,H  18)          109.47  0.004724   -0.79    108.68   
    47. A(H  16,C  11,H  17)          109.47  0.001350    0.12    109.59   
    48. A(N   5,C  11,H  17)          109.47 -0.002974    0.53    110.01   
    49. A(H  17,C  11,H  18)          109.47  0.004701   -0.78    108.69   
    50. A(N   5,C  11,H  16)          109.47 -0.006758    0.99    110.46   
    51. D(C   3,C   1,C   0,N   5)   -180.00  0.000253   -0.16   -180.16   
    52. D(C   3,C   1,C   0,C   2)      0.00 -0.001469    0.82      0.82   
    53. D(H   4,C   1,C   0,C   2)    180.00 -0.002216    1.23    181.23   
    54. D(H   4,C   1,C   0,N   5)     -0.00 -0.000494    0.25      0.25   
    55. D(H   7,C   2,C   0,C   1)   -180.00  0.002216   -1.23   -181.23   
    56. D(H   7,C   2,C   0,N   5)      0.00  0.000494   -0.25     -0.25   
    57. D(C   6,C   2,C   0,C   1)     -0.00  0.001469   -0.82     -0.82   
    58. D(C   6,C   2,C   0,N   5)    180.00 -0.000253    0.16    180.16   
    59. D(H   9,C   3,C   1,H   4)      0.00  0.000464   -0.27     -0.27   
    60. D(H   9,C   3,C   1,C   0)   -180.00 -0.000283    0.14   -179.86   
    61. D(N   8,C   3,C   1,H   4)   -180.00  0.002421   -1.32   -181.32   
    62. D(N   8,C   3,C   1,C   0)      0.00  0.001673   -0.91     -0.91   
    63. D(C  11,N   5,C   0,C   1)    150.00 -0.004802    3.26    153.26   
    64. D(C  10,N   5,C   0,C   2)   -150.00  0.004802   -3.26   -153.26   
    65. D(C  10,N   5,C   0,C   1)     30.00  0.003049   -2.26     27.74   
    66. D(C  11,N   5,C   0,C   2)    -30.00 -0.003049    2.26    -27.74   
    67. D(H  12,C   6,C   2,H   7)     -0.00 -0.000464    0.27      0.27   
    68. D(H  12,C   6,C   2,C   0)    180.00  0.000283   -0.14    179.86   
    69. D(N   8,C   6,C   2,H   7)    180.00 -0.002421    1.32    181.32   
    70. D(N   8,C   6,C   2,C   0)     -0.00 -0.001673    0.91      0.91   
    71. D(C   3,N   8,C   6,H  12)   -180.00 -0.000064    0.05   -179.95   
    72. D(C   3,N   8,C   6,C   2)      0.00  0.001893   -1.00     -1.00   
    73. D(C   6,N   8,C   3,H   9)    180.00  0.000064   -0.05    179.95   
    74. D(C   6,N   8,C   3,C   1)     -0.00 -0.001893    1.00      1.00   
    75. D(H  15,C  10,N   5,C   0)   -180.00 -0.003466    1.57   -178.43   
    76. D(H  14,C  10,N   5,C  11)    -60.00  0.012466   -5.27    -65.27   
    77. D(H  14,C  10,N   5,C   0)     60.00 -0.010295    2.68     62.68   
    78. D(H  13,C  10,N   5,C  11)   -180.00  0.016773   -6.35   -186.35   
    79. D(H  13,C  10,N   5,C   0)    -60.00 -0.005988    1.60    -58.40   
    80. D(H  16,C  11,N   5,C  10)    180.00 -0.016773    6.35    186.35   
    81. D(H  16,C  11,N   5,C   0)     60.00  0.005988   -1.60     58.40   
    82. D(H  18,C  11,N   5,C   0)    180.00  0.003466   -1.57    178.43   
    83. D(H  17,C  11,N   5,C  10)     60.00 -0.012466    5.27     65.27   
    84. D(H  17,C  11,N   5,C   0)    -60.00  0.010295   -2.68    -62.68   
    ----------------------------------------------------------------------------

Geometry step timings:
Preparation and reading OPT file:      0.001 s ( 4.634 %)
Internal coordinates            :      0.000 s ( 2.900 %)
B/P matrices and projection     :      0.001 s ( 5.346 %)
Hessian update/contruction      :      0.010 s (61.004 %)
Making the step                 :      0.002 s ( 9.956 %)
Converting the step to Cartesian:      0.001 s ( 3.344 %)
Storing new data                :      0.000 s ( 2.229 %)
Checking convergence            :      0.000 s ( 0.047 %)
Final printing                  :      0.001 s ( 7.073 %)
Total time                      :      0.017 s

Time for energy+gradient        :      0.082 s
Time for complete geometry iter :      0.111 s

         *************************************************************
         *                GEOMETRY OPTIMIZATION CYCLE   2            *
         *************************************************************
---------------------------------
CARTESIAN COORDINATES (ANGSTROEM)
---------------------------------
  C    -0.183316    0.141485   -0.000000
  C    -0.110251   -0.578915    1.195907
  C    -0.110251   -0.578915   -1.195907
  C     0.047185   -1.959744    1.149491
  H    -0.179658   -0.089910    2.147914
  N    -0.350536    1.581075    0.000000
  C     0.047185   -1.959744   -1.149491
  H    -0.179658   -0.089910   -2.147914
  N     0.110300   -2.597346   -0.000000
  H     0.102500   -2.526494    2.061223
  C     0.188585    2.231037    1.192779
  C     0.188585    2.231037   -1.192779
  H     0.102500   -2.526494   -2.061223
  H    -0.283051    1.838195    2.082946
  H     1.261296    2.072673    1.249230
  H    -0.002204    3.295622    1.124194
  H    -0.283051    1.838195   -2.082946
  H     1.261296    2.072673   -1.249230
  H    -0.002204    3.295622   -1.124194

----------------------------
CARTESIAN COORDINATES (A.U.)
----------------------------
  NO LB    ZA    FRAG    MASS        X           Y           Z
   0 C   6.0000    1    12.011   -0.346417    0.267369   -0.000000
   1 C   6.0000    1    12.011   -0.208343   -1.093990    2.259936
   2 C   6.0000    1    12.011   -0.208343   -1.093990   -2.259936
   3 C   6.0000    1    12.011    0.089167   -3.703380    2.172223
   4 H   1.0000    1     1.008   -0.339504   -0.169904    4.058970
   5 N   7.0000    1    14.007   -0.662418    2.987798    0.000000
   6 C   6.0000    1    12.011    0.089167   -3.703380   -2.172223
   7 H   1.0000    1     1.008   -0.339504   -0.169904   -4.058970
   8 N   7.0000    1    14.007    0.208437   -4.908273   -0.000000
   9 H   1.0000    1     1.008    0.193697   -4.774382    3.895146
  10 C   6.0000    1    12.011    0.356374    4.216049    2.254026
  11 C   6.0000    1    12.011    0.356374    4.216049   -2.254026
  12 H   1.0000    1     1.008    0.193697   -4.774382   -3.895146
  13 H   1.0000    1     1.008   -0.534888    3.473686    3.936198
  14 H   1.0000    1     1.008    2.383505    3.916784    2.360702
  15 H   1.0000    1     1.008   -0.004166    6.227822    2.124419
  16 H   1.0000    1     1.008   -0.534888    3.473686   -3.936198
  17 H   1.0000    1     1.008    2.383505    3.916784   -2.360702
  18 H   1.0000    1     1.008   -0.004166    6.227822   -2.124419

      -----------------------------------------------------------      
     |                   =====================                   |     
     |                           x T B                           |     
     |                   =====================                   |     
     |                         S. Grimme                         |     
     |          Mulliken Center for Theoretical Chemistry        |     
     |                    University of Bonn                     |     
      -----------------------------------------------------------      

   * xtb version 6.6.1 (8d0f1dd) compiled by 'stahn@M-Bot' on 2023-08-01

   xtb is free software: you can redistribute it and/or modify it under
   the terms of the GNU Lesser General Public License as published by
   the Free Software Foundation, either version 3 of the License, or
   (at your option) any later version.
   
   xtb is distributed in the hope that it will be useful,
   but WITHOUT ANY WARRANTY; without even the implied warranty of
   MERCHANTABILITY or FITNESS FOR A PARTICULAR PURPOSE.  See the
   GNU Lesser General Public License for more details.
   
   Cite this work as:
   * C. Bannwarth, E. Caldeweyher, S. Ehlert, A. Hansen, P. Pracht,
     J. Seibert, S. Spicher, S. Grimme, WIREs Comput. Mol. Sci., 2020, 11,
     e01493. DOI: 10.1002/wcms.1493
   
   for GFN2-xTB:
   * C. Bannwarth, S. Ehlert and S. Grimme., J. Chem. Theory Comput., 2019,
     15, 1652-1671. DOI: 10.1021/acs.jctc.8b01176
   for GFN1-xTB:
   * S. Grimme, C. Bannwarth, P. Shushkov, J. Chem. Theory Comput., 2017,
     13, 1989-2009. DOI: 10.1021/acs.jctc.7b00118
   for GFN0-xTB:
   * P. Pracht, E. Caldeweyher, S. Ehlert, S. Grimme, ChemRxiv, 2019, preprint.
     DOI: 10.26434/chemrxiv.8326202.v1
   for GFN-FF:
   * S. Spicher and S. Grimme, Angew. Chem. Int. Ed., 2020, 59, 15665-15673.
     DOI: 10.1002/anie.202004239
   
   for ALPB and GBSA implicit solvation:
   * S. Ehlert, M. Stahn, S. Spicher, S. Grimme, J. Chem. Theory Comput.,
     2021, 17, 4250-4261. DOI: 10.1021/acs.jctc.1c00471
   
   for DFT-D4:
   * E. Caldeweyher, C. Bannwarth and S. Grimme, J. Chem. Phys., 2017,
     147, 034112. DOI: 10.1063/1.4993215
   * E. Caldeweyher, S. Ehlert, A. Hansen, H. Neugebauer, S. Spicher,
     C. Bannwarth and S. Grimme, J. Chem. Phys., 2019, 150, 154122.
     DOI: 10.1063/1.5090222
   * E. Caldeweyher, J.-M. Mewes, S. Ehlert and S. Grimme, Phys. Chem. Chem. Phys.
     2020, 22, 8499-8512. DOI: 10.1039/D0CP00502A
   
   for sTDA-xTB:
   * S. Grimme and C. Bannwarth, J. Chem. Phys., 2016, 145, 054103.
     DOI: 10.1063/1.4959605
   
   in the mass-spec context:
   * V. Asgeirsson, C. Bauer and S. Grimme, Chem. Sci., 2017, 8, 4879.
     DOI: 10.1039/c7sc00601b
   * J. Koopman and S. Grimme, ACS Omega 2019, 4, 12, 15120-15133.
     DOI: 10.1021/acsomega.9b02011
   
   for metadynamics refer to:
   * S. Grimme, J. Chem. Theory Comput., 2019, 155, 2847-2862
     DOI: 10.1021/acs.jctc.9b00143
   
   for SPH calculations refer to:
   * S. Spicher and S. Grimme, J. Chem. Theory Comput., 2021, 17, 1701-1714
     DOI: 10.1021/acs.jctc.0c01306
   
   with help from (in alphabetical order)
   P. Atkinson, C. Bannwarth, F. Bohle, G. Brandenburg, E. Caldeweyher
   M. Checinski, S. Dohm, S. Ehlert, S. Ehrlich, I. Gerasimov, C. Hölzer
   A. Katbashev, J. Koopman, C. Lavigne, S. Lehtola, F. März, M. Müller,
   F. Musil, H. Neugebauer, J. Pisarek, C. Plett, P. Pracht, F. Pultar,
   J. Seibert, P. Shushkov, S. Spicher, M. Stahn, M. Steiner, T. Strunk,
   J. Stückrath, T. Rose, and J. Unsleber
   
 * started run on 2026/01/22 at 15:35:05.654     

           -------------------------------------------------
          |                Calculation Setup                |
           -------------------------------------------------

          program call               : /leonardo/home/userexternal/morza000/xtb/xtb-6.6.1/bin/xtb goat_water_XTB.xyz --grad -c 1 -u 1 -P 4 --namespace goat_water --input goat_water_XTB.input.tmp --alpb WATER --acc 0.200000
          hostname                   : lrdn4915
          calculation namespace      : goat_water
          coordinate file            : goat_water_XTB.xyz
          omp threads                :                     4

   ID    Z sym.   atoms
    1    6 C      1-4, 7, 11, 12
    2    1 H      5, 8, 10, 13-19
    3    7 N      6, 9

           -------------------------------------------------
          |                 G F N 2 - x T B                 |
           -------------------------------------------------

        Reference                      10.1021/acs.jctc.8b01176
      * Hamiltonian:
        H0-scaling (s, p, d)           1.850000    2.230000    2.230000
        zeta-weighting                 0.500000
      * Dispersion:
        s8                             2.700000
        a1                             0.520000
        a2                             5.000000
        s9                             5.000000
      * Repulsion:
        kExp                           1.500000    1.000000
        rExp                           1.000000
      * Coulomb:
        alpha                          2.000000
        third order                    shell-resolved
        anisotropic                    true
        a3                             3.000000
        a5                             4.000000
        cn-shift                       1.200000
        cn-exp                         4.000000
        max-rad                        5.000000

      * Solvation model:               ALPB
        Solvent                        WATER
        Parameter file                 internal GFN2-xTB/ALPB
        Dielectric constant                8.0200E+01
        Reference state                gsolv [1 M gas/solution]
        Free energy shift                  1.0808E-03 Eh       6.7819E-01 kcal/mol
        Temperature                        2.9815E+02 K
        Density                            1.0000E+00 kg/L
        Solvent mass                       1.8000E+01 g/mol
        Interaction kernel             P16
        Born radius scaling (c1)           1.4744E+00
        Born radii integrator          GBOBC
        Born offset                        0.0000E+00 a0       0.0000E+00 AA
        H-bond correction              true
        Ion screening                  false
        Surface tension                    1.0000E-05 Eh       1.5569E+01 dyn/cm
        Grid points                               230 per atom
q/qsh data taken from xtbrestart
CAMM data taken from xtbrestart

          ...................................................
          :                      SETUP                      :
          :.................................................:
          :  # basis functions                  46          :
          :  # atomic orbitals                  46          :
          :  # shells                           28          :
          :  # electrons                        47          :
          :  max. iterations                   250          :
          :  Hamiltonian                  GFN2-xTB          :
          :  restarted?                       true          :
          :  GBSA solvation                   true          :
          :  PC potential                    false          :
          :  electronic temp.          300.0000000     K    :
          :  accuracy                    0.2000000          :
          :  -> integral cutoff          0.3198970E+02      :
          :  -> integral neglect         0.2000000E-08      :
          :  -> SCF convergence          0.2000000E-06 Eh   :
          :  -> wf. convergence          0.2000000E-04 e    :
          :  Broyden damping             0.4000000          :
          ...................................................

 iter      E             dE          RMSdq      gap      omega  full diag
   1    -25.9361130 -0.259361E+02  0.451E-01    3.53       0.0  T
   2    -25.9054113  0.307016E-01  0.125E+00    3.53       1.0  T
   3    -25.9358110 -0.303997E-01  0.384E-01    3.54       1.0  T
   4    -25.9377625 -0.195148E-02  0.750E-02    3.55       1.0  T
   5    -25.9378164 -0.539115E-04  0.308E-02    3.55       1.0  T
   6    -25.9378246 -0.819208E-05  0.148E-02    3.55       1.5  T
   7    -25.9378248 -0.165717E-06  0.360E-03    3.55       6.4  T
   8    -25.9378249 -0.132112E-06  0.156E-03    3.55      14.7  T
   9    -25.9378249  0.194652E-08  0.820E-04    3.55      28.0  T
  10    -25.9378249 -0.692655E-09  0.845E-04    3.55      27.1  T
  11    -25.9378249 -0.110451E-07  0.108E-04    3.55     213.0  T
  12    -25.9378249  0.958558E-10  0.976E-05    3.55     235.0  T

   *** convergence criteria satisfied after 12 iterations ***

         #    Occupation            Energy/Eh            Energy/eV
      -------------------------------------------------------------
         1        2.0000           -0.7109315             -19.3454
       ...           ...                  ...                  ...
        18        2.0000           -0.4924757             -13.4009
        19        2.0000           -0.4838621             -13.1666
        20        2.0000           -0.4793301             -13.0432
        21        2.0000           -0.4625336             -12.5862
        22        2.0000           -0.4564196             -12.4198
        23        1.9846           -0.4217489             -11.4764
        24        1.0154           -0.4138425             -11.2612 (HOMO)
        25                         -0.2834627              -7.7134 (LUMO)
        26                         -0.2764669              -7.5230
        27                         -0.1504470              -4.0939
        28                         -0.0370520              -1.0082
        29                          0.0495606               1.3486
       ...                                ...                  ...
        46                          0.5749855              15.6462
      -------------------------------------------------------------
                  HL-Gap            0.1303798 Eh            3.5478 eV
             Fermi-level           -0.3832241 Eh          -10.4281 eV

 SCC (total)                   0 d,  0 h,  0 min,  0.017 sec
 SCC setup                      ...        0 min,  0.000 sec (  2.802%)
 Dispersion                     ...        0 min,  0.000 sec (  1.123%)
 classical contributions        ...        0 min,  0.000 sec (  0.303%)
 integral evaluation            ...        0 min,  0.001 sec (  4.693%)
 iterations                     ...        0 min,  0.013 sec ( 77.103%)
 molecular gradient             ...        0 min,  0.002 sec ( 12.145%)
 printout                       ...        0 min,  0.000 sec (  1.698%)

         :::::::::::::::::::::::::::::::::::::::::::::::::::::
         ::                     SUMMARY                     ::
         :::::::::::::::::::::::::::::::::::::::::::::::::::::
         :: total energy             -25.531314619229 Eh    ::
         :: total w/o Gsasa/hb       -25.524268602441 Eh    ::
         :: gradient norm              0.069286438047 Eh/a0 ::
         :: HOMO-LUMO gap              3.547814226032 eV    ::
         ::.................................................::
         :: SCC energy               -25.937824899356 Eh    ::
         :: -> isotropic ES            0.087216245453 Eh    ::
         :: -> anisotropic ES         -0.011277032721 Eh    ::
         :: -> anisotropic XC          0.020087405556 Eh    ::
         :: -> dispersion             -0.013386975992 Eh    ::
         :: -> Gsolv                  -0.082060837408 Eh    ::
         ::    -> Gelec               -0.075014820620 Eh    ::
         ::    -> Gsasa               -0.004077298047 Eh    ::
         ::    -> Ghb                 -0.004049478439 Eh    ::
         ::    -> Gshift               0.001080759698 Eh    ::
         :: repulsion energy           0.406454125705 Eh    ::
         :: add. restraining           0.000000000000 Eh    ::
         :: total charge               1.000000000000 e     ::
         :::::::::::::::::::::::::::::::::::::::::::::::::::::


Property printout bound to 'properties.out'

           -------------------------------------------------
          | TOTAL ENERGY              -25.531314619229 Eh   |
          | GRADIENT NORM               0.069286438047 Eh/α |
          | HOMO-LUMO GAP               3.547814226032 eV   |
           -------------------------------------------------

------------------------------------------------------------------------
 * finished run on 2026/01/22 at 15:35:05.707     
------------------------------------------------------------------------
 total:
 * wall-time:     0 d,  0 h,  0 min,  0.053 sec
 *  cpu-time:     0 d,  0 h,  0 min,  0.118 sec
 * ratio c/w:     2.252 speedup
 SCF:
 * wall-time:     0 d,  0 h,  0 min,  0.017 sec
 *  cpu-time:     0 d,  0 h,  0 min,  0.045 sec
 * ratio c/w:     2.617 speedup


-------------------------   --------------------
FINAL SINGLE POINT ENERGY       -25.531314619230
-------------------------   --------------------


-------------
DIPOLE MOMENT
-------------
                                X             Y             Z
Total Dipole Moment    :      0.41100       1.40500      -0.00000
                        -----------------------------------------
Magnitude (a.u.)       :      1.46388
Magnitude (Debye)      :      3.72089

------------------------------------------------------------------------------
                         ORCA GEOMETRY RELAXATION STEP
------------------------------------------------------------------------------

Reading the OPT-File                    .... done
Getting information on internals        .... done
Copying old internal coords+grads       .... done
Making the new internal coordinates     .... (2022 redundants) done
Validating the new internal coordinates .... (2022 redundants) done
Calculating the B-matrix                .... done
Calculating the G,G- and P matrices     .... done
Transforming gradient to internals      .... done
Projecting the internal gradient        .... done
Number of atoms                         ....  19
Number of internal coordinates          ....  84
Current Energy                          ....   -25.531314619 Eh
Current gradient norm                   ....     0.069286438 Eh/bohr
Maximum allowed component of the step   ....  0.300
Current trust radius                    ....  0.300
Updating the Hessian (BFGS)             .... done
Forming the augmented Hessian           .... done
Diagonalizing the augmented Hessian     .... done
Last element of RFO vector              ....  0.921535639
Lowest eigenvalues of augmented Hessian:
 -0.014688827  0.013714219  0.014835992  0.015175797  0.022209060
Length of the computed step             ....  0.421355150
Warning: the length of the step is outside the trust region - taking restricted step instead
The input lambda is                     ....     0.012714
   iter:   5  x=   -0.043528  g=    1.888384 f(x)=     0.004939
The output lambda is                    ....    -0.043642 (9 iterations)
The final length of the internal step   ....  0.300000000
Converting the step to Cartesian space:
 Initial RMS(Int)=    0.0327326835
Transforming coordinates:
 Iter   0:  RMS(Cart)=    0.0514182963 RMS(Int)=    0.9686802268
 Iter   5:  RMS(Cart)=    0.0000000669 RMS(Int)=    0.0000000312
done
Storing new coordinates                 .... done
The predicted energy change is          ....    -0.007485508
Previously predicted energy change      ....    -0.013742831
Actually observed energy change         ....    -0.015029964
Ratio of predicted to observed change   ....     1.093658488
New trust radius                        ....     0.450000000

                                .--------------------.
          ----------------------|Geometry convergence|-------------------------
          Item                value                   Tolerance       Converged
          ---------------------------------------------------------------------
          Energy change      -0.0150299640            0.0000050000      NO
          RMS gradient        0.0047211794            0.0001000000      NO
          MAX gradient        0.0279555921            0.0003000000      NO
          RMS step            0.0327326835            0.0020000000      NO
          MAX step            0.0998881907            0.0040000000      NO
          ........................................................
          Max(Bonds)      0.0529      Max(Angles)    3.34
          Max(Dihed)        5.42      Max(Improp)    0.00
          ---------------------------------------------------------------------

The optimization has not yet converged - more geometry cycles are needed


    ---------------------------------------------------------------------------
                         Redundant Internal Coordinates
                            (Angstroem and degrees)

        Definition                    Value    dE/dq     Step     New-Value
    ----------------------------------------------------------------------------
     1. B(C   1,C   0)                1.3980 -0.002147  0.0034    1.4014   
     2. B(C   2,C   0)                1.3980 -0.002147  0.0034    1.4014   
     3. B(C   3,C   1)                1.3906  0.003349 -0.0058    1.3848   
     4. B(H   4,C   1)                1.0725 -0.001766  0.0037    1.0762   
     5. B(N   5,C   0)                1.4493  0.027956 -0.0529    1.3964   
     6. B(C   6,C   2)                1.3906  0.003349 -0.0058    1.3848   
     7. B(H   7,C   2)                1.0725 -0.001766  0.0037    1.0762   
     8. B(N   8,C   6)                1.3160  0.008260 -0.0138    1.3022   
     9. B(N   8,C   3)                1.3160  0.008260 -0.0138    1.3022   
    10. B(H   9,C   3)                1.0750 -0.002430  0.0051    1.0801   
    11. B(C  10,N   5)                1.4614  0.008571 -0.0164    1.4450   
    12. B(C  11,N   5)                1.4614  0.008571 -0.0164    1.4450   
    13. B(H  12,C   6)                1.0750 -0.002430  0.0051    1.0801   
    14. B(H  13,C  10)                1.0813 -0.002863  0.0065    1.0878   
    15. B(H  14,C  10)                1.0858 -0.003842  0.0088    1.0946   
    16. B(H  15,C  10)                1.0837 -0.002416  0.0059    1.0896   
    17. B(H  16,C  11)                1.0813 -0.002863  0.0065    1.0878   
    18. B(H  17,C  11)                1.0858 -0.003842  0.0088    1.0946   
    19. B(H  18,C  11)                1.0837 -0.002416  0.0059    1.0896   
    20. A(C   1,C   0,C   2)          117.61  0.001509   -0.30    117.31   
    21. A(C   1,C   0,N   5)          121.19 -0.000750    0.15    121.34   
    22. A(C   2,C   0,N   5)          121.19 -0.000750    0.15    121.34   
    23. A(C   0,C   1,H   4)          121.40 -0.004689    1.09    122.49   
    24. A(C   0,C   1,C   3)          119.28  0.002020   -0.36    118.92   
    25. A(C   3,C   1,H   4)          119.32  0.002673   -0.74    118.59   
    26. A(C   0,C   2,C   6)          119.28  0.002020   -0.36    118.92   
    27. A(C   6,C   2,H   7)          119.32  0.002673   -0.74    118.59   
    28. A(C   0,C   2,H   7)          121.40 -0.004689    1.09    122.49   
    29. A(N   8,C   3,H   9)          118.88  0.003704   -0.86    118.02   
    30. A(C   1,C   3,H   9)          120.07 -0.001630    0.44    120.51   
    31. A(C   1,C   3,N   8)          121.04 -0.002052    0.42    121.46   
    32. A(C   0,N   5,C  10)          113.53 -0.005281    3.34    116.87   
    33. A(C  10,N   5,C  11)          109.41 -0.001250    2.00    111.40   
    34. A(C   0,N   5,C  11)          113.53 -0.005281    3.34    116.87   
    35. A(C   2,C   6,N   8)          121.04 -0.002052    0.42    121.46   
    36. A(N   8,C   6,H  12)          118.88  0.003704   -0.86    118.02   
    37. A(C   2,C   6,H  12)          120.07 -0.001630    0.44    120.51   
    38. A(C   3,N   8,C   6)          121.73 -0.001413    0.16    121.89   
    39. A(H  14,C  10,H  15)          108.69  0.002527   -0.68    108.01   
    40. A(H  13,C  10,H  15)          109.40  0.000047   -0.14    109.26   
    41. A(N   5,C  10,H  15)          108.68  0.001267   -0.40    108.28   
    42. A(H  13,C  10,H  14)          109.58  0.001606   -0.28    109.30   
    43. A(N   5,C  10,H  14)          110.00 -0.002472    0.71    110.71   
    44. A(N   5,C  10,H  13)          110.45 -0.002884    0.77    111.22   
    45. A(H  16,C  11,H  18)          109.40  0.000047   -0.14    109.26   
    46. A(N   5,C  11,H  18)          108.68  0.001267   -0.40    108.28   
    47. A(H  16,C  11,H  17)          109.58  0.001606   -0.28    109.30   
    48. A(N   5,C  11,H  17)          110.00 -0.002472    0.71    110.71   
    49. A(H  17,C  11,H  18)          108.69  0.002527   -0.68    108.01   
    50. A(N   5,C  11,H  16)          110.45 -0.002884    0.77    111.22   
    51. D(C   3,C   1,C   0,N   5)    179.84  0.000037    0.05    179.90   
    52. D(C   3,C   1,C   0,C   2)      0.82 -0.000497    0.18      1.00   
    53. D(H   4,C   1,C   0,C   2)   -178.77 -0.001061    0.65   -178.11   
    54. D(H   4,C   1,C   0,N   5)      0.26 -0.000528    0.53      0.79   
    55. D(H   7,C   2,C   0,C   1)    178.77  0.001061   -0.65    178.11   
    56. D(H   7,C   2,C   0,N   5)     -0.26  0.000528   -0.53     -0.79   
    57. D(C   6,C   2,C   0,C   1)     -0.82  0.000497   -0.18     -1.00   
    58. D(C   6,C   2,C   0,N   5)   -179.84 -0.000037   -0.05   -179.90   
    59. D(H   9,C   3,C   1,H   4)     -0.26  0.000205   -0.16     -0.42   
    60. D(H   9,C   3,C   1,C   0)   -179.85 -0.000317    0.31   -179.54   
    61. D(N   8,C   3,C   1,H   4)    178.69  0.001639   -1.37    177.32   
    62. D(N   8,C   3,C   1,C   0)     -0.91  0.001117   -0.90     -1.81   
    63. D(C  11,N   5,C   0,C   1)    153.40 -0.005644    3.70    157.10   
    64. D(C  10,N   5,C   0,C   2)   -153.40  0.005644   -3.70   -157.10   
    65. D(C  10,N   5,C   0,C   1)     27.61  0.005070   -3.56     24.05   
    66. D(C  11,N   5,C   0,C   2)    -27.61 -0.005070    3.56    -24.05   
    67. D(H  12,C   6,C   2,H   7)      0.26 -0.000205    0.16      0.42   
    68. D(H  12,C   6,C   2,C   0)    179.85  0.000317   -0.31    179.54   
    69. D(N   8,C   6,C   2,H   7)   -178.69 -0.001639    1.37   -177.32   
    70. D(N   8,C   6,C   2,C   0)      0.91 -0.001117    0.90      1.81   
    71. D(C   3,N   8,C   6,H  12)   -179.95  0.000402   -0.44   -180.40   
    72. D(C   3,N   8,C   6,C   2)     -0.99  0.001765   -1.65     -2.64   
    73. D(C   6,N   8,C   3,H   9)    179.95 -0.000402    0.44    180.40   
    74. D(C   6,N   8,C   3,C   1)      0.99 -0.001765    1.65      2.64   
    75. D(H  15,C  10,N   5,C   0)   -178.43 -0.002715    2.31   -176.12   
    76. D(H  14,C  10,N   5,C  11)    -65.27  0.007189   -4.83    -70.10   
    77. D(H  14,C  10,N   5,C   0)     62.68 -0.005098    2.95     65.63   
    78. D(H  13,C  10,N   5,C  11)    173.64  0.008676   -5.42    168.22   
    79. D(H  13,C  10,N   5,C   0)    -58.41 -0.003611    2.36    -56.04   
    80. D(H  16,C  11,N   5,C  10)   -173.64 -0.008676    5.42   -168.22   
    81. D(H  16,C  11,N   5,C   0)     58.41  0.003611   -2.36     56.04   
    82. D(H  18,C  11,N   5,C   0)    178.43  0.002715   -2.31    176.12   
    83. D(H  17,C  11,N   5,C  10)     65.27 -0.007189    4.83     70.10   
    84. D(H  17,C  11,N   5,C   0)    -62.68  0.005098   -2.95    -65.63   
    ----------------------------------------------------------------------------

Geometry step timings:
Preparation and reading OPT file:      0.001 s ( 6.519 %)
Internal coordinates            :      0.000 s ( 0.322 %)
B/P matrices and projection     :      0.001 s ( 8.393 %)
Hessian update/contruction      :      0.004 s (46.872 %)
Making the step                 :      0.001 s (11.533 %)
Converting the step to Cartesian:      0.000 s ( 1.289 %)
Storing new data                :      0.000 s ( 3.761 %)
Checking convergence            :      0.001 s ( 6.757 %)
Final printing                  :      0.001 s (14.494 %)
Total time                      :      0.008 s

Time for energy+gradient        :      0.076 s
Time for complete geometry iter :      0.092 s

         *************************************************************
         *                GEOMETRY OPTIMIZATION CYCLE   3            *
         *************************************************************
---------------------------------
CARTESIAN COORDINATES (ANGSTROEM)
---------------------------------
  C    -0.139843    0.149867   -0.000000
  C    -0.086264   -0.577188    1.196870
  C    -0.086264   -0.577188   -1.196870
  C     0.036464   -1.955261    1.138290
  H    -0.151181   -0.106606    2.162502
  N    -0.265476    1.540615    0.000000
  C     0.036464   -1.955261   -1.138290
  H    -0.151181   -0.106606   -2.162502
  N     0.067799   -2.586876   -0.000000
  H     0.072580   -2.541419    2.044785
  C     0.187280    2.225430    1.189188
  C     0.187280    2.225430   -1.189188
  H     0.072580   -2.541419   -2.044785
  H    -0.313408    1.845531    2.077060
  H     1.269727    2.116272    1.310020
  H    -0.033810    3.286510    1.077714
  H    -0.313408    1.845531   -2.077060
  H     1.269727    2.116272   -1.310020
  H    -0.033810    3.286510   -1.077714

----------------------------
CARTESIAN COORDINATES (A.U.)
----------------------------
  NO LB    ZA    FRAG    MASS        X           Y           Z
   0 C   6.0000    1    12.011   -0.264266    0.283208   -0.000000
   1 C   6.0000    1    12.011   -0.163016   -1.090726    2.261756
   2 C   6.0000    1    12.011   -0.163016   -1.090726   -2.261756
   3 C   6.0000    1    12.011    0.068907   -3.694908    2.151056
   4 H   1.0000    1     1.008   -0.285691   -0.201457    4.086536
   5 N   7.0000    1    14.007   -0.501676    2.911340    0.000000
   6 C   6.0000    1    12.011    0.068907   -3.694908   -2.151056
   7 H   1.0000    1     1.008   -0.285691   -0.201457   -4.086536
   8 N   7.0000    1    14.007    0.128121   -4.888488   -0.000000
   9 H   1.0000    1     1.008    0.137157   -4.802586    3.864084
  10 C   6.0000    1    12.011    0.353907    4.205453    2.247240
  11 C   6.0000    1    12.011    0.353907    4.205453   -2.247240
  12 H   1.0000    1     1.008    0.137157   -4.802586   -3.864084
  13 H   1.0000    1     1.008   -0.592255    3.487548    3.925074
  14 H   1.0000    1     1.008    2.399436    3.999175    2.475580
  15 H   1.0000    1     1.008   -0.063891    6.210603    2.036585
  16 H   1.0000    1     1.008   -0.592255    3.487548   -3.925074
  17 H   1.0000    1     1.008    2.399436    3.999175   -2.475580
  18 H   1.0000    1     1.008   -0.063891    6.210603   -2.036585

      -----------------------------------------------------------      
     |                   =====================                   |     
     |                           x T B                           |     
     |                   =====================                   |     
     |                         S. Grimme                         |     
     |          Mulliken Center for Theoretical Chemistry        |     
     |                    University of Bonn                     |     
      -----------------------------------------------------------      

   * xtb version 6.6.1 (8d0f1dd) compiled by 'stahn@M-Bot' on 2023-08-01

   xtb is free software: you can redistribute it and/or modify it under
   the terms of the GNU Lesser General Public License as published by
   the Free Software Foundation, either version 3 of the License, or
   (at your option) any later version.
   
   xtb is distributed in the hope that it will be useful,
   but WITHOUT ANY WARRANTY; without even the implied warranty of
   MERCHANTABILITY or FITNESS FOR A PARTICULAR PURPOSE.  See the
   GNU Lesser General Public License for more details.
   
   Cite this work as:
   * C. Bannwarth, E. Caldeweyher, S. Ehlert, A. Hansen, P. Pracht,
     J. Seibert, S. Spicher, S. Grimme, WIREs Comput. Mol. Sci., 2020, 11,
     e01493. DOI: 10.1002/wcms.1493
   
   for GFN2-xTB:
   * C. Bannwarth, S. Ehlert and S. Grimme., J. Chem. Theory Comput., 2019,
     15, 1652-1671. DOI: 10.1021/acs.jctc.8b01176
   for GFN1-xTB:
   * S. Grimme, C. Bannwarth, P. Shushkov, J. Chem. Theory Comput., 2017,
     13, 1989-2009. DOI: 10.1021/acs.jctc.7b00118
   for GFN0-xTB:
   * P. Pracht, E. Caldeweyher, S. Ehlert, S. Grimme, ChemRxiv, 2019, preprint.
     DOI: 10.26434/chemrxiv.8326202.v1
   for GFN-FF:
   * S. Spicher and S. Grimme, Angew. Chem. Int. Ed., 2020, 59, 15665-15673.
     DOI: 10.1002/anie.202004239
   
   for ALPB and GBSA implicit solvation:
   * S. Ehlert, M. Stahn, S. Spicher, S. Grimme, J. Chem. Theory Comput.,
     2021, 17, 4250-4261. DOI: 10.1021/acs.jctc.1c00471
   
   for DFT-D4:
   * E. Caldeweyher, C. Bannwarth and S. Grimme, J. Chem. Phys., 2017,
     147, 034112. DOI: 10.1063/1.4993215
   * E. Caldeweyher, S. Ehlert, A. Hansen, H. Neugebauer, S. Spicher,
     C. Bannwarth and S. Grimme, J. Chem. Phys., 2019, 150, 154122.
     DOI: 10.1063/1.5090222
   * E. Caldeweyher, J.-M. Mewes, S. Ehlert and S. Grimme, Phys. Chem. Chem. Phys.
     2020, 22, 8499-8512. DOI: 10.1039/D0CP00502A
   
   for sTDA-xTB:
   * S. Grimme and C. Bannwarth, J. Chem. Phys., 2016, 145, 054103.
     DOI: 10.1063/1.4959605
   
   in the mass-spec context:
   * V. Asgeirsson, C. Bauer and S. Grimme, Chem. Sci., 2017, 8, 4879.
     DOI: 10.1039/c7sc00601b
   * J. Koopman and S. Grimme, ACS Omega 2019, 4, 12, 15120-15133.
     DOI: 10.1021/acsomega.9b02011
   
   for metadynamics refer to:
   * S. Grimme, J. Chem. Theory Comput., 2019, 155, 2847-2862
     DOI: 10.1021/acs.jctc.9b00143
   
   for SPH calculations refer to:
   * S. Spicher and S. Grimme, J. Chem. Theory Comput., 2021, 17, 1701-1714
     DOI: 10.1021/acs.jctc.0c01306
   
   with help from (in alphabetical order)
   P. Atkinson, C. Bannwarth, F. Bohle, G. Brandenburg, E. Caldeweyher
   M. Checinski, S. Dohm, S. Ehlert, S. Ehrlich, I. Gerasimov, C. Hölzer
   A. Katbashev, J. Koopman, C. Lavigne, S. Lehtola, F. März, M. Müller,
   F. Musil, H. Neugebauer, J. Pisarek, C. Plett, P. Pracht, F. Pultar,
   J. Seibert, P. Shushkov, S. Spicher, M. Stahn, M. Steiner, T. Strunk,
   J. Stückrath, T. Rose, and J. Unsleber
   
[...]
     2020, 22, 8499-8512. DOI: 10.1039/D0CP00502A
   
   for sTDA-xTB:
   * S. Grimme and C. Bannwarth, J. Chem. Phys., 2016, 145, 054103.
     DOI: 10.1063/1.4959605
   
   in the mass-spec context:
   * V. Asgeirsson, C. Bauer and S. Grimme, Chem. Sci., 2017, 8, 4879.
     DOI: 10.1039/c7sc00601b
   * J. Koopman and S. Grimme, ACS Omega 2019, 4, 12, 15120-15133.
     DOI: 10.1021/acsomega.9b02011
   
   for metadynamics refer to:
   * S. Grimme, J. Chem. Theory Comput., 2019, 155, 2847-2862
     DOI: 10.1021/acs.jctc.9b00143
   
   for SPH calculations refer to:
   * S. Spicher and S. Grimme, J. Chem. Theory Comput., 2021, 17, 1701-1714
     DOI: 10.1021/acs.jctc.0c01306
   
   with help from (in alphabetical order)
   P. Atkinson, C. Bannwarth, F. Bohle, G. Brandenburg, E. Caldeweyher
   M. Checinski, S. Dohm, S. Ehlert, S. Ehrlich, I. Gerasimov, C. Hölzer
   A. Katbashev, J. Koopman, C. Lavigne, S. Lehtola, F. März, M. Müller,
   F. Musil, H. Neugebauer, J. Pisarek, C. Plett, P. Pracht, F. Pultar,
   J. Seibert, P. Shushkov, S. Spicher, M. Stahn, M. Steiner, T. Strunk,
   J. Stückrath, T. Rose, and J. Unsleber
   
 * started run on 2026/01/22 at 15:35:06.648     

           -------------------------------------------------
          |                Calculation Setup                |
           -------------------------------------------------

          program call               : /leonardo/home/userexternal/morza000/xtb/xtb-6.6.1/bin/xtb goat_water_XTB.xyz --grad -c 1 -u 1 -P 4 --namespace goat_water --input goat_water_XTB.input.tmp --alpb WATER --acc 0.200000
          hostname                   : lrdn4915
          calculation namespace      : goat_water
          coordinate file            : goat_water_XTB.xyz
          omp threads                :                     4

   ID    Z sym.   atoms
    1    6 C      1-4, 7, 11, 12
    2    1 H      5, 8, 10, 13-19
    3    7 N      6, 9

           -------------------------------------------------
          |                 G F N 2 - x T B                 |
           -------------------------------------------------

        Reference                      10.1021/acs.jctc.8b01176
      * Hamiltonian:
        H0-scaling (s, p, d)           1.850000    2.230000    2.230000
        zeta-weighting                 0.500000
      * Dispersion:
        s8                             2.700000
        a1                             0.520000
        a2                             5.000000
        s9                             5.000000
      * Repulsion:
        kExp                           1.500000    1.000000
        rExp                           1.000000
      * Coulomb:
        alpha                          2.000000
        third order                    shell-resolved
        anisotropic                    true
        a3                             3.000000
        a5                             4.000000
        cn-shift                       1.200000
        cn-exp                         4.000000
        max-rad                        5.000000

      * Solvation model:               ALPB
        Solvent                        WATER
        Parameter file                 internal GFN2-xTB/ALPB
        Dielectric constant                8.0200E+01
        Reference state                gsolv [1 M gas/solution]
        Free energy shift                  1.0808E-03 Eh       6.7819E-01 kcal/mol
        Temperature                        2.9815E+02 K
        Density                            1.0000E+00 kg/L
        Solvent mass                       1.8000E+01 g/mol
        Interaction kernel             P16
        Born radius scaling (c1)           1.4744E+00
        Born radii integrator          GBOBC
        Born offset                        0.0000E+00 a0       0.0000E+00 AA
        H-bond correction              true
        Ion screening                  false
        Surface tension                    1.0000E-05 Eh       1.5569E+01 dyn/cm
        Grid points                               230 per atom
q/qsh data taken from xtbrestart
CAMM data taken from xtbrestart

          ...................................................
          :                      SETUP                      :
          :.................................................:
          :  # basis functions                  46          :
          :  # atomic orbitals                  46          :
          :  # shells                           28          :
          :  # electrons                        47          :
          :  max. iterations                   250          :
          :  Hamiltonian                  GFN2-xTB          :
          :  restarted?                       true          :
          :  GBSA solvation                   true          :
          :  PC potential                    false          :
          :  electronic temp.          300.0000000     K    :
          :  accuracy                    0.2000000          :
          :  -> integral cutoff          0.3198970E+02      :
          :  -> integral neglect         0.2000000E-08      :
          :  -> SCF convergence          0.2000000E-06 Eh   :
          :  -> wf. convergence          0.2000000E-04 e    :
          :  Broyden damping             0.4000000          :
          ...................................................

 iter      E             dE          RMSdq      gap      omega  full diag
   1    -25.9629236 -0.259629E+02  0.118E-02    3.69       0.0  T
   2    -25.9628162  0.107371E-03  0.781E-02    3.69       1.0  T
   3    -25.9629255 -0.109325E-03  0.387E-03    3.69       5.9  T
   4    -25.9629257 -0.197343E-06  0.526E-04    3.69      43.6  T
   5    -25.9629257 -0.182494E-08  0.124E-04    3.69     184.5  T
   6    -25.9629257  0.255767E-09  0.157E-04    3.69     145.9  T

   *** convergence criteria satisfied after 6 iterations ***

         #    Occupation            Energy/Eh            Energy/eV
      -------------------------------------------------------------
         1        2.0000           -0.7123107             -19.3830
       ...           ...                  ...                  ...
        18        2.0000           -0.4963518             -13.5064
        19        2.0000           -0.4809812             -13.0882
        20        2.0000           -0.4794028             -13.0452
        21        2.0000           -0.4608797             -12.5412
        22        2.0000           -0.4495626             -12.2332
        23        1.8493           -0.4065273             -11.0622
        24        1.1507           -0.4032423             -10.9728 (HOMO)
        25                         -0.2677947              -7.2871 (LUMO)
        26                         -0.2663944              -7.2490
        27                         -0.1389030              -3.7797
        28                         -0.0236693              -0.6441
        29                          0.0802767               2.1844
       ...                                ...                  ...
        46                          0.5869710              15.9723
      -------------------------------------------------------------
                  HL-Gap            0.1354475 Eh            3.6857 eV
             Fermi-level           -0.3702016 Eh          -10.0737 eV

 SCC (total)                   0 d,  0 h,  0 min,  0.024 sec
 SCC setup                      ...        0 min,  0.000 sec (  1.993%)
 Dispersion                     ...        0 min,  0.000 sec (  0.939%)
 classical contributions        ...        0 min,  0.000 sec (  0.274%)
 integral evaluation            ...        0 min,  0.001 sec (  4.002%)
 iterations                     ...        0 min,  0.019 sec ( 81.410%)
 molecular gradient             ...        0 min,  0.002 sec ( 10.177%)
 printout                       ...        0 min,  0.000 sec (  1.129%)

         :::::::::::::::::::::::::::::::::::::::::::::::::::::
         ::                     SUMMARY                     ::
         :::::::::::::::::::::::::::::::::::::::::::::::::::::
         :: total energy             -25.550176957133 Eh    ::
         :: total w/o Gsasa/hb       -25.543269447929 Eh    ::
         :: gradient norm              0.000187284643 Eh/a0 ::
         :: HOMO-LUMO gap              3.685714201409 eV    ::
         ::.................................................::
         :: SCC energy               -25.962925726235 Eh    ::
         :: -> isotropic ES            0.092094612941 Eh    ::
         :: -> anisotropic ES         -0.012845322868 Eh    ::
         :: -> anisotropic XC          0.020592130599 Eh    ::
         :: -> dispersion             -0.013315741875 Eh    ::
         :: -> Gsolv                  -0.086093347477 Eh    ::
         ::    -> Gelec               -0.079185838273 Eh    ::
         ::    -> Gsasa               -0.003602072726 Eh    ::
         ::    -> Ghb                 -0.004386196177 Eh    ::
         ::    -> Gshift               0.001080759698 Eh    ::
         :: repulsion energy           0.412695058880 Eh    ::
         :: add. restraining           0.000000000000 Eh    ::
         :: total charge               1.000000000000 e     ::
         :::::::::::::::::::::::::::::::::::::::::::::::::::::


Property printout bound to 'properties.out'

           -------------------------------------------------
          | TOTAL ENERGY              -25.550176957133 Eh   |
          | GRADIENT NORM               0.000187284643 Eh/α |
          | HOMO-LUMO GAP               3.685714201409 eV   |
           -------------------------------------------------

------------------------------------------------------------------------
 * finished run on 2026/01/22 at 15:35:06.739     
------------------------------------------------------------------------
 total:
 * wall-time:     0 d,  0 h,  0 min,  0.090 sec
 *  cpu-time:     0 d,  0 h,  0 min,  0.173 sec
 * ratio c/w:     1.912 speedup
 SCF:
 * wall-time:     0 d,  0 h,  0 min,  0.024 sec
 *  cpu-time:     0 d,  0 h,  0 min,  0.048 sec
 * ratio c/w:     1.985 speedup


-------------------------   --------------------
FINAL SINGLE POINT ENERGY       -25.550176957130
-------------------------   --------------------


-------------
DIPOLE MOMENT
-------------
                                X             Y             Z
Total Dipole Moment    :      0.27100       2.41700      -0.00000
                        -----------------------------------------
Magnitude (a.u.)       :      2.43215
Magnitude (Debye)      :      6.18202

                                *** OPTIMIZATION RUN DONE ***

		     ------------------------------
			                   _   
			                  | |  
			  __ _  ___   __ _| |_ 
			 / _` |/ _ \ / _` | __|
			| (_| | (_) | (_| | |_ 
			 \__, |\___/ \__,_|\__|
			 __/ |                
			|___/                 

		      A Global Optimizer Algorithm
		     ------------------------------

Global parameters
-----------------
  GOAT version                               ... default
  Minimum global steps                       ... 3
  Number of base workers                     ... 4
  Split workers by                           ... 2
  Final number of workers                    ... 8
  Number of available CPUs                   ... 4
  Parameter list (worker : temperature)      ...  0 : 2903.97,  1 : 1451.98, 
                                                  2 :  725.99,  3 :  363.00, 
                                                  4 : 2903.97,  5 : 1451.98, 
                                                  6 :  725.99,  7 :  363.00 
  GradComp (mean : sigma)                    ... 1.00 : 0.50
  Number of fragments                        ... 1
  Number of atoms                            ... 19
  Flexibility parameter                      ... 0.22
  Optimizations per global step              ... 120
  Optimizations per worker                   ... 15
  *Reached the min. opt. per worker: max(flex * NAtoms, 15) = 15

Filtering criteria
------------------
  RMSD                                       ... 0.125 Angs (atom. pos.)
  EnDiff                                     ... 0.100 kcal/mol
  RotConst                                   ... 1.00-2.50 %
  Maximum Conf. Energy                       ... 6.000 kcal/mol

Thermodynamics
--------------
  Ensemble temperature                       ... 298.15 K
  Degeneracy of conformers                   ... 1
  *No rotamers will be included in Gconf

------------------------------------------------------------------------------
   Iter  MinTemp     MaxEn       GradComp    NOpt   NProcs    Output
------------------------------------------------------------------------------
List of participating nodes    ...  goat_water.goat.0.hostnames

   1     1451.98     57.00    1.00 : 0.50      15        1    goat_water.goat.0.1.out
   0     2903.97     57.00    1.00 : 0.50      15        1    goat_water.goat.0.0.out
   2      725.99     57.00    1.00 : 0.50      15        1    goat_water.goat.0.2.out
   3      363.00     57.00    1.00 : 0.50      15        1    goat_water.goat.0.3.out
   4     2903.97     57.00    1.00 : 0.50      15        1    goat_water.goat.0.4.out
   5     1451.98     57.00    1.00 : 0.50      15        1    goat_water.goat.0.5.out
   6      725.99     57.00    1.00 : 0.50      15        1    goat_water.goat.0.6.out
   7      363.00     57.00    1.00 : 0.50      15        1    goat_water.goat.0.7.out

			     GOAT Global Iter 1
		Iter    Min En       Sconf       Gconf   
		        Hartree      cal/(molK)  kcal/mol
		=========================================

		   1    -25.550553   1.339       -0.304

List of participating nodes    ...  goat_water.goat.1.hostnames

   3      363.00     57.00    1.00 : 0.50      15        1    goat_water.goat.1.3.out
   0     2903.97     57.00    1.00 : 0.50      15        1    goat_water.goat.1.0.out
   1     1451.98     57.00    1.00 : 0.50      15        1    goat_water.goat.1.1.out
   2      725.99     57.00    1.00 : 0.50      15        1    goat_water.goat.1.2.out
   4     2903.97     57.00    1.00 : 0.50      15        1    goat_water.goat.1.4.out
   5     1451.98     57.00    1.00 : 0.50      15        1    goat_water.goat.1.5.out
   6      725.99     57.00    1.00 : 0.50      15        1    goat_water.goat.1.6.out
   7      363.00     57.00    1.00 : 0.50      15        1    goat_water.goat.1.7.out

			     GOAT Global Iter 2
		Iter    Min En       Sconf       Gconf   
		        Hartree      cal/(molK)  kcal/mol
		=========================================

		   1    -25.550553   1.339       -0.304
		   2    -25.550553   1.339       -0.304

List of participating nodes    ...  goat_water.goat.2.hostnames

   0     2903.97     57.00    1.00 : 0.50      15        1    goat_water.goat.2.0.out
   1     1451.98     57.00    1.00 : 0.50      15        1    goat_water.goat.2.1.out
   2      725.99     57.00    1.00 : 0.50      15        1    goat_water.goat.2.2.out
   3      363.00     57.00    1.00 : 0.50      15        1    goat_water.goat.2.3.out
   4     2903.97     57.00    1.00 : 0.50      15        1    goat_water.goat.2.4.out
   5     1451.98     57.00    1.00 : 0.50      15        1    goat_water.goat.2.5.out
   6      725.99     57.00    1.00 : 0.50      15        1    goat_water.goat.2.6.out
   7      363.00     57.00    1.00 : 0.50      15        1    goat_water.goat.2.7.out

			     GOAT Global Iter 3
		Iter    Min En       Sconf       Gconf   
		        Hartree      cal/(molK)  kcal/mol
		=========================================

		   1    -25.550553   1.339       -0.304
		   2    -25.550553   1.339       -0.304
		   3    -25.550554   1.339       -0.304

		Global minimum found!
		Writing structure to goat_water.globalminimum.xyz

		# Final ensemble info #
		Conformer     Energy     Degen.   % total   % cumul.  
		              (kcal/mol)
		------------------------------------------------------
		        0     0.000	     1      59.85      59.85
		        1     0.236	     1      40.15     100.00

		Conformers below 3 kcal/mol: 2
		Lowest energy conformer    : -25.550554 Eh
		Sconf at 298.15 K          :  1.34 cal/(molK)
		Gconf at 298.15 K          : -0.30 kcal/mol

		Writing final ensemble to goat_water.finalensemble.xyz

--------------------------------
SUGGESTED CITATIONS FOR THIS RUN
--------------------------------

Below you find a list of papers that are relevant to this ORCA run
We neither can nor want to force you to cite these papers, but we appreciate if you do
You receive ORCA, which is the product of decades of hard work by many enthusiastic individuals, for free
The only thing we kindly ask in return is that you cite our papers,
We deeply appreciate it, if you show your appreciation for ORCA by not just citing the generic ORCA reference.

Please note that relegating all ORCA citations to the supporting information does *not* help us.
SI sections are not indexed - citations you put there will not count into any citation statistics
But we need these citations in order to attract the funding resources that allow us to do what we are doing

Therefore, if you are a happy ORCA user, please consider citing a few of the papers listed below in the main body of your paper

In addition to the list printed below, the program has created the file goat_water.bibtex that contains the list in bibtex format
You can import this file easily into all common literature databanks and citation aid programs


List of essential papers. We consider these as the minimum necessary citations

  1. Bannwarth,C.; Ehlert,S.; Grimme,S.
     GFN2-xTB—An Accurate and Broadly Parametrized Self-Consistent Tight-Binding Quantum Chemical Method with Multipole Electrostatics and Density-Dependent Dispersion Contributions
     J. Chem. Theory Comput., 2019 15(3)1652-1671
     doi.org/10.1021/acs.jctc.8b01176
  2. Neese,F.
     Software update: the ORCA program system, version 5.0
     WIRES Comput. Molec. Sci., 2022 12(1)e1606
     doi.org/10.1002/wcms.1606

List of papers to cite with high priority. The work reported in these papers was absolutely
necessary for this run to complete.
Our perspective: the developers of density functionals and basis sets usually get cited in chemistry papers
Good! But without the algorithms to do something with them, the functionals or basis sets would not do anything.
Hence, in our opinion, the algorithm design and method developments papers are equally worthy of getting cited

  1. Bannwarth,C.; Caldeweyher,E.; Ehlert,S.; Hansen,A.; Pracht,P.; Seibert,J.; Spicher,S.; Grimme,S.
     Extended tight-binding quantum chemistry methods
     WIRES Comput. Molec. Sci., 2020 11(2)e1493
     doi.org/10.1002/wcms.1493

List of suggested additional citations. These are papers that are important in the 'surrounding' of 
of this run, or papers that preceded the highly important papers. If you like your results we are grateful for a citation.

  1. Neese,F.
     The ORCA program system
     WIRES Comput. Molec. Sci., 2012 2(1)73-78
     doi.org/10.1002/wcms.81
  2. Neese,F.
     Software update: the ORCA program system, version 4.0
     WIRES Comput. Molec. Sci., 2018 8(1)1-6
     doi.org/10.1002/wcms.1327
  3. Neese,F.; Wennmohs,F.; Becker,U.; Riplinger,C.
     The ORCA quantum chemistry program package
     J. Chem. Phys., 2020 152 Art. No. L224108
     doi.org/10.1063/5.0004608

List of optional additional citations

  1. Neese,F.
     Approximate second-order SCF convergence for spin unrestricted wavefunctions
     Chem. Phys. Lett., 2000 325(1-3)93-98
     doi.org/10.1016/s0009-2614(00)00662-x

Timings for individual modules:

Sum of individual times          ...        1.136 sec (=   0.019 min)
Geometry relaxation              ...        0.137 sec (=   0.002 min)  12.1 %
XTB module                       ...        0.999 sec (=   0.017 min)  87.9 %
                             ****ORCA TERMINATED NORMALLY****
TOTAL RUN TIME: 0 days 0 hours 5 minutes 30 seconds 505 msec
