 Set GAUSS_PDEF to "8".
 Entering Gaussian System, Link 0=g16
 Initial command:
 /leonardo/prod/opt/applications/g16/c02/binary/g16/l1.exe "/leonardo_scratch/large/userexternal/morza000/g16_32712407/Gau-3663749.inp" -scrdir="/leonardo_scratch/large/userexternal/morza000/g16_32712407/"
 Default is to use a total of   8 processors:
                                8 via shared-memory
                                1 via Linda
 Entering Link 1 = /leonardo/prod/opt/applications/g16/c02/binary/g16/l1.exe PID=   3663751.
  
 Copyright (c) 1988-2021, Gaussian, Inc.  All Rights Reserved.
  
 This is part of the Gaussian(R) 16 program.  It is based on
 the Gaussian(R) 09 system (copyright 2009, Gaussian, Inc.),
 the Gaussian(R) 03 system (copyright 2003, Gaussian, Inc.),
 the Gaussian(R) 98 system (copyright 1998, Gaussian, Inc.),
 the Gaussian(R) 94 system (copyright 1995, Gaussian, Inc.),
 the Gaussian 92(TM) system (copyright 1992, Gaussian, Inc.),
 the Gaussian 90(TM) system (copyright 1990, Gaussian, Inc.),
 the Gaussian 88(TM) system (copyright 1988, Gaussian, Inc.),
 the Gaussian 86(TM) system (copyright 1986, Carnegie Mellon
 University), and the Gaussian 82(TM) system (copyright 1983,
 Carnegie Mellon University). Gaussian is a federally registered
 trademark of Gaussian, Inc.
  
 This software contains proprietary and confidential information,
 including trade secrets, belonging to Gaussian, Inc.
  
 This software is provided under written license and may be
 used, copied, transmitted, or stored only in accord with that
 written license.
  
 The following legend is applicable only to US Government
 contracts under FAR:
  
                    RESTRICTED RIGHTS LEGEND
  
 Use, reproduction and disclosure by the US Government is
 subject to restrictions as set forth in subparagraphs (a)
 and (c) of the Commercial Computer Software - Restricted
 Rights clause in FAR 52.227-19.
  
 Gaussian, Inc.
 340 Quinnipiac St., Bldg. 40, Wallingford CT 06492
  
  
 ---------------------------------------------------------------
 Warning -- This program may not be used in any manner that
 competes with the business of Gaussian, Inc. or will provide
 assistance to any competitor of Gaussian, Inc.  The licensee
 of this program is prohibited from giving any competitor of
 Gaussian, Inc. access to this program.  By using this program,
 the user acknowledges that Gaussian, Inc. is engaged in the
 business of creating and licensing software in the field of
 computational chemistry and represents and warrants to the
 licensee that it is not a competitor of Gaussian, Inc. and that
 it will not use this program in any manner prohibited above.
 ---------------------------------------------------------------
  

 Cite this work as:
 Gaussian 16, Revision C.02,
 M. J. Frisch, G. W. Trucks, H. B. Schlegel, G. E. Scuseria, 
 M. A. Robb, J. R. Cheeseman, G. Scalmani, V. Barone, 
 G. A. Petersson, H. Nakatsuji, X. Li, M. Caricato, A. V. Marenich, 
 J. Bloino, B. G. Janesko, R. Gomperts, B. Mennucci, H. P. Hratchian, 
 J. V. Ortiz, A. F. Izmaylov, J. L. Sonnenberg, D. Williams-Young, 
 F. Ding, F. Lipparini, F. Egidi, J. Goings, B. Peng, A. Petrone, 
 T. Henderson, D. Ranasinghe, V. G. Zakrzewski, J. Gao, N. Rega, 
 G. Zheng, W. Liang, M. Hada, M. Ehara, K. Toyota, R. Fukuda, 
 J. Hasegawa, M. Ishida, T. Nakajima, Y. Honda, O. Kitao, H. Nakai, 
 T. Vreven, K. Throssell, J. A. Montgomery, Jr., J. E. Peralta, 
 F. Ogliaro, M. J. Bearpark, J. J. Heyd, E. N. Brothers, K. N. Kudin, 
 V. N. Staroverov, T. A. Keith, R. Kobayashi, J. Normand, 
 K. Raghavachari, A. P. Rendell, J. C. Burant, S. S. Iyengar, 
 J. Tomasi, M. Cossi, J. M. Millam, M. Klene, C. Adamo, R. Cammi, 
 J. W. Ochterski, R. L. Martin, K. Morokuma, O. Farkas, 
 J. B. Foresman, and D. J. Fox, Gaussian, Inc., Wallingford CT, 2019.
 
 ******************************************
 Gaussian 16:  ES64L-G16RevC.02  7-Dec-2021
                22-Jan-2026 
 ******************************************
 %nprocshared=12
 Will use up to   12 processors via shared memory.
 %mem=12GB
 %chk=optdft.chk
 ----------------------------------------------------------------
 #p opt M062X def2SVP empiricaldispersion=GD3 SCRF(solvent=water)
 ----------------------------------------------------------------
 1/18=20,19=15,26=3,38=1/1,3;
 2/9=110,12=2,17=6,18=5,40=1/2;
 3/5=43,7=101,11=2,25=1,30=1,70=2201,71=1,72=1,74=-55,124=31/1,2,3;
 4//1;
 5/5=2,38=5,53=1/2;
 6/7=2,8=2,9=2,10=2,28=1/1;
 7//1,2,3,16;
 1/18=20,19=15,26=3/3(2);
 2/9=110/2;
 99//99;
 2/9=110/2;
 3/5=43,7=101,11=2,25=1,30=1,70=2205,71=1,72=1,74=-55,124=31/1,2,3;
 4/5=5,16=3,69=1/1;
 5/5=2,38=5,53=1/2;
 7//1,2,3,16;
 1/18=20,19=15,26=3/3(-5);
 2/9=110/2;
 6/7=2,8=2,9=2,10=2,19=2,28=1/1;
 99/9=1/99;
 Leave Link    1 at Thu Jan 22 16:28:36 2026, MaxMem=  1610612736 cpu:               0.2 elap:               0.5
 (Enter /leonardo/prod/opt/applications/g16/c02/binary/g16/l101.exe)
 ------
 titolo
 ------
 Symbolic Z-matrix:
 Charge =  1 Multiplicity = 2
 C                     0.03332   0.1601    0.00589 
 C                    -0.03614  -0.54482   1.23024 
 C                     0.01079  -0.61284  -1.17852 
 C                    -0.13243  -1.92234   1.2052 
 H                    -0.03719  -0.04449   2.18196 
 N                     0.14784   1.51037  -0.03001 
 C                    -0.08792  -1.98685  -1.07958 
 H                     0.04732  -0.16699  -2.15627 
 N                    -0.19443  -2.60618   0.07956 
 H                    -0.19765  -2.49551   2.11807 
 C                     0.22801   2.26664   1.17802 
 C                     0.27579   2.19738  -1.27474 
 H                    -0.11819  -2.61067  -1.96052 
 H                    -0.62647   2.05738   1.82574 
 H                     1.13338   2.01872   1.73936 
 H                     0.24497   3.32921   0.95529 
 H                    -0.55306   1.95098  -1.94238 
 H                     1.20205   1.91919  -1.78553 
 H                     0.28524   3.27084  -1.1118 
 
 ITRead=  0  0  0  0  0  0  0  0  0  0  0  0  0  0  0  0  0  0  0
 MicOpt= -1 -1 -1 -1 -1 -1 -1 -1 -1 -1 -1 -1 -1 -1 -1 -1 -1 -1 -1
 NAtoms=     19 NQM=       19 NQMF=       0 NMMI=      0 NMMIF=      0
                NMic=       0 NMicF=      0.
                    Isotopes and Nuclear Properties:
 (Nuclear quadrupole moments (NQMom) in fm**2, nuclear magnetic moments (NMagM)
  in nuclear magnetons)

  Atom         1           2           3           4           5           6           7           8           9          10
 IAtWgt=          12          12          12          12           1          14          12           1          14           1
 AtmWgt=  12.0000000  12.0000000  12.0000000  12.0000000   1.0078250  14.0030740  12.0000000   1.0078250  14.0030740   1.0078250
 NucSpn=           0           0           0           0           1           2           0           1           2           1
 AtZEff=  -0.0000000  -0.0000000  -0.0000000  -0.0000000  -0.0000000  -0.0000000  -0.0000000  -0.0000000  -0.0000000  -0.0000000
 NQMom=    0.0000000   0.0000000   0.0000000   0.0000000   0.0000000   2.0440000   0.0000000   0.0000000   2.0440000   0.0000000
 NMagM=    0.0000000   0.0000000   0.0000000   0.0000000   2.7928460   0.4037610   0.0000000   2.7928460   0.4037610   2.7928460
 AtZNuc=   6.0000000   6.0000000   6.0000000   6.0000000   1.0000000   7.0000000   6.0000000   1.0000000   7.0000000   1.0000000

  Atom        11          12          13          14          15          16          17          18          19
 IAtWgt=          12          12           1           1           1           1           1           1           1
 AtmWgt=  12.0000000  12.0000000   1.0078250   1.0078250   1.0078250   1.0078250   1.0078250   1.0078250   1.0078250
 NucSpn=           0           0           1           1           1           1           1           1           1
 AtZEff=  -0.0000000  -0.0000000  -0.0000000  -0.0000000  -0.0000000  -0.0000000  -0.0000000  -0.0000000  -0.0000000
 NQMom=    0.0000000   0.0000000   0.0000000   0.0000000   0.0000000   0.0000000   0.0000000   0.0000000   0.0000000
 NMagM=    0.0000000   0.0000000   2.7928460   2.7928460   2.7928460   2.7928460   2.7928460   2.7928460   2.7928460
 AtZNuc=   6.0000000   6.0000000   1.0000000   1.0000000   1.0000000   1.0000000   1.0000000   1.0000000   1.0000000
 Leave Link  101 at Thu Jan 22 16:28:36 2026, MaxMem=  1610612736 cpu:               0.4 elap:               0.5
 (Enter /leonardo/prod/opt/applications/g16/c02/binary/g16/l103.exe)

 GradGradGradGradGradGradGradGradGradGradGradGradGradGradGradGradGradGrad
 Berny optimization.
 Initialization pass.
                           ----------------------------
                           !    Initial Parameters    !
                           ! (Angstroms and Degrees)  !
 --------------------------                            --------------------------
 ! Name  Definition              Value          Derivative Info.                !
 --------------------------------------------------------------------------------
 ! R1    R(1,2)                  1.4145         estimate D2E/DX2                !
 ! R2    R(1,3)                  1.4145         estimate D2E/DX2                !
 ! R3    R(1,6)                  1.3556         estimate D2E/DX2                !
 ! R4    R(2,4)                  1.3811         estimate D2E/DX2                !
 ! R5    R(2,5)                  1.0752         estimate D2E/DX2                !
 ! R6    R(3,7)                  1.3811         estimate D2E/DX2                !
 ! R7    R(3,8)                  1.0752         estimate D2E/DX2                !
 ! R8    R(4,9)                  1.3185         estimate D2E/DX2                !
 ! R9    R(4,10)                 1.0799         estimate D2E/DX2                !
 ! R10   R(6,11)                 1.4275         estimate D2E/DX2                !
 ! R11   R(6,12)                 1.4275         estimate D2E/DX2                !
 ! R12   R(7,9)                  1.3185         estimate D2E/DX2                !
 ! R13   R(7,13)                 1.0799         estimate D2E/DX2                !
 ! R14   R(11,14)                1.0925         estimate D2E/DX2                !
 ! R15   R(11,15)                1.0937         estimate D2E/DX2                !
 ! R16   R(11,16)                1.0858         estimate D2E/DX2                !
 ! R17   R(12,17)                1.0925         estimate D2E/DX2                !
 ! R18   R(12,18)                1.0937         estimate D2E/DX2                !
 ! R19   R(12,19)                1.0858         estimate D2E/DX2                !
 ! A1    A(2,1,3)              116.8515         estimate D2E/DX2                !
 ! A2    A(2,1,6)              121.5654         estimate D2E/DX2                !
 ! A3    A(3,1,6)              121.5654         estimate D2E/DX2                !
 ! A4    A(1,2,4)              118.9987         estimate D2E/DX2                !
 ! A5    A(1,2,5)              122.2968         estimate D2E/DX2                !
 ! A6    A(4,2,5)              118.6921         estimate D2E/DX2                !
 ! A7    A(1,3,7)              118.9987         estimate D2E/DX2                !
 ! A8    A(1,3,8)              122.2968         estimate D2E/DX2                !
 ! A9    A(7,3,8)              118.6921         estimate D2E/DX2                !
 ! A10   A(2,4,9)              122.4151         estimate D2E/DX2                !
 ! A11   A(2,4,10)             121.2167         estimate D2E/DX2                !
 ! A12   A(9,4,10)             116.3315         estimate D2E/DX2                !
 ! A13   A(1,6,11)             120.667          estimate D2E/DX2                !
 ! A14   A(1,6,12)             120.667          estimate D2E/DX2                !
 ! A15   A(11,6,12)            118.5491         estimate D2E/DX2                !
 ! A16   A(3,7,9)              122.4151         estimate D2E/DX2                !
 ! A17   A(3,7,13)             121.2167         estimate D2E/DX2                !
 ! A18   A(9,7,13)             116.3315         estimate D2E/DX2                !
 ! A19   A(4,9,7)              120.2053         estimate D2E/DX2                !
 ! A20   A(6,11,14)            110.8758         estimate D2E/DX2                !
 ! A21   A(6,11,15)            111.1446         estimate D2E/DX2                !
 ! A22   A(6,11,16)            110.2268         estimate D2E/DX2                !
 ! A23   A(14,11,15)           107.4424         estimate D2E/DX2                !
 ! A24   A(14,11,16)           108.7415         estimate D2E/DX2                !
 ! A25   A(15,11,16)           108.3109         estimate D2E/DX2                !
 ! A26   A(6,12,17)            110.8758         estimate D2E/DX2                !
 ! A27   A(6,12,18)            111.1446         estimate D2E/DX2                !
 ! A28   A(6,12,19)            110.2268         estimate D2E/DX2                !
 ! A29   A(17,12,18)           107.4424         estimate D2E/DX2                !
 ! A30   A(17,12,19)           108.7415         estimate D2E/DX2                !
 ! A31   A(18,12,19)           108.3109         estimate D2E/DX2                !
 ! D1    D(3,1,2,4)             -0.5618         estimate D2E/DX2                !
 ! D2    D(3,1,2,5)           -179.2629         estimate D2E/DX2                !
 ! D3    D(6,1,2,4)           -179.0529         estimate D2E/DX2                !
 ! D4    D(6,1,2,5)              2.2459         estimate D2E/DX2                !
 ! D5    D(2,1,3,7)              0.5618         estimate D2E/DX2                !
 ! D6    D(2,1,3,8)            179.2629         estimate D2E/DX2                !
 ! D7    D(6,1,3,7)            179.0529         estimate D2E/DX2                !
 ! D8    D(6,1,3,8)             -2.2459         estimate D2E/DX2                !
 ! D9    D(2,1,6,11)             1.2038         estimate D2E/DX2                !
 ! D10   D(2,1,6,12)           177.2163         estimate D2E/DX2                !
 ! D11   D(3,1,6,11)          -177.2163         estimate D2E/DX2                !
 ! D12   D(3,1,6,12)            -1.2038         estimate D2E/DX2                !
 ! D13   D(1,2,4,9)             -1.6615         estimate D2E/DX2                !
 ! D14   D(1,2,4,10)          -179.3754         estimate D2E/DX2                !
 ! D15   D(5,2,4,9)            177.0869         estimate D2E/DX2                !
 ! D16   D(5,2,4,10)            -0.627          estimate D2E/DX2                !
 ! D17   D(1,3,7,9)              1.6615         estimate D2E/DX2                !
 ! D18   D(1,3,7,13)           179.3754         estimate D2E/DX2                !
 ! D19   D(8,3,7,9)           -177.0869         estimate D2E/DX2                !
 ! D20   D(8,3,7,13)             0.627          estimate D2E/DX2                !
 ! D21   D(2,4,9,7)              3.9224         estimate D2E/DX2                !
 ! D22   D(10,4,9,7)          -178.259          estimate D2E/DX2                !
 ! D23   D(1,6,11,14)          -55.5767         estimate D2E/DX2                !
 ! D24   D(1,6,11,15)           63.8603         estimate D2E/DX2                !
 ! D25   D(1,6,11,16)         -176.0406         estimate D2E/DX2                !
 ! D26   D(12,6,11,14)         128.3278         estimate D2E/DX2                !
 ! D27   D(12,6,11,15)        -112.2351         estimate D2E/DX2                !
 ! D28   D(12,6,11,16)           7.8639         estimate D2E/DX2                !
 ! D29   D(1,6,12,17)           55.5767         estimate D2E/DX2                !
 ! D30   D(1,6,12,18)          -63.8603         estimate D2E/DX2                !
 ! D31   D(1,6,12,19)          176.0406         estimate D2E/DX2                !
 ! D32   D(11,6,12,17)        -128.3278         estimate D2E/DX2                !
 ! D33   D(11,6,12,18)         112.2351         estimate D2E/DX2                !
 ! D34   D(11,6,12,19)          -7.8639         estimate D2E/DX2                !
 ! D35   D(3,7,9,4)             -3.9224         estimate D2E/DX2                !
 ! D36   D(13,7,9,4)           178.259          estimate D2E/DX2                !
 --------------------------------------------------------------------------------
 Trust Radius=3.00D-01 FncErr=1.00D-07 GrdErr=1.00D-06 EigMax=2.50D+02 EigMin=1.00D-04
 Number of steps in this run=     96 maximum allowed number of steps=    114.
 GradGradGradGradGradGradGradGradGradGradGradGradGradGradGradGradGradGrad

 Leave Link  103 at Thu Jan 22 16:28:37 2026, MaxMem=  1610612736 cpu:               0.0 elap:               0.1
 (Enter /leonardo/prod/opt/applications/g16/c02/binary/g16/l202.exe)
                          Input orientation:                          
 ---------------------------------------------------------------------
 Center     Atomic      Atomic             Coordinates (Angstroms)
 Number     Number       Type             X           Y           Z
 ---------------------------------------------------------------------
      1          6           0        0.033323    0.160105    0.005891
      2          6           0       -0.036136   -0.544819    1.230243
      3          6           0        0.010792   -0.612835   -1.178523
      4          6           0       -0.132427   -1.922338    1.205195
      5          1           0       -0.037195   -0.044491    2.181960
      6          7           0        0.147836    1.510370   -0.030006
      7          6           0       -0.087916   -1.986853   -1.079580
      8          1           0        0.047322   -0.166989   -2.156266
      9          7           0       -0.194425   -2.606176    0.079565
     10          1           0       -0.197649   -2.495507    2.118074
     11          6           0        0.228006    2.266641    1.178025
     12          6           0        0.275790    2.197383   -1.274735
     13          1           0       -0.118190   -2.610674   -1.960519
     14          1           0       -0.626467    2.057382    1.825740
     15          1           0        1.133382    2.018719    1.739357
     16          1           0        0.244970    3.329212    0.955286
     17          1           0       -0.553056    1.950982   -1.942379
     18          1           0        1.202053    1.919187   -1.785528
     19          1           0        0.285241    3.270844   -1.111798
 ---------------------------------------------------------------------
                    Distance matrix (angstroms):
                    1          2          3          4          5
     1  C    0.000000
     2  C    1.414490   0.000000
     3  C    1.414490   2.410183   0.000000
     4  C    2.408811   1.381107   2.723495   0.000000
     5  H    2.186803   1.075218   3.408543   2.118831   0.000000
     6  N    1.355587   2.417824   2.417824   3.658927   2.710096
     7  C    2.408811   2.723495   1.381107   2.286119   3.796443
     8  H    2.186803   3.408543   1.075218   3.796443   4.340778
     9  N    2.776617   2.366074   2.366074   1.318530   3.317682
    10  H    3.401020   2.149305   3.802033   1.079872   2.457093
    11  C    2.418532   2.824324   3.727182   4.204545   2.533683
    12  C    2.418532   3.727182   2.824324   4.825847   4.131912
    13  H    3.401020   3.802033   2.149305   3.239716   4.873601
    14  H    2.710505   2.733964   4.069614   4.057995   2.211788
    15  H    2.769383   2.863337   4.086480   4.173672   2.413086
    16  H    3.315024   3.893936   4.488621   5.271020   3.600863
    17  H    2.710505   4.069614   2.733964   5.008668   4.610661
    18  H    2.769383   4.086480   2.863337   5.048028   4.597035
    19  H    3.315024   4.488621   3.893936   5.701933   4.684468
                    6          7          8          9         10
     6  N    0.000000
     7  C    3.658927   0.000000
     8  H    2.710096   2.118831   0.000000
     9  N    4.132202   1.318530   3.317682   0.000000
    10  H    4.558580   3.239716   4.873601   2.041513   0.000000
    11  C    1.427484   4.825847   4.131912   5.012924   4.872672
    12  C    1.427484   4.204545   2.533683   5.012924   5.810208
    13  H    4.558580   1.079872   2.457093   2.041513   4.080992
    14  H    2.083881   5.008668   4.610661   4.998456   4.582373
    15  H    2.088149   5.048028   4.597035   5.089955   4.721579
    16  H    2.070851   5.701933   4.684468   6.015711   5.956118
    17  H    2.083881   4.057995   2.211788   4.998456   6.031986
    18  H    2.088149   4.173671   2.413086   5.089954   6.056963
    19  H    2.070851   5.271020   3.600863   6.015711   6.626919
                   11         12         13         14         15
    11  C    0.000000
    12  C    2.454203   0.000000
    13  H    5.810208   4.872672   0.000000
    14  H    1.092450   3.232122   6.031986   0.000000
    15  H    1.093739   3.138812   6.056963   1.762391   0.000000
    16  H    1.085798   2.500997   6.626919   1.770492   1.766758
    17  H    3.232122   1.092450   4.582373   3.770335   4.050166
    18  H    3.138812   1.093739   4.721579   4.050166   3.526959
    19  H    2.500997   1.085798   5.956118   3.306482   3.227420
                   16         17         18         19
    16  H    0.000000
    17  H    3.306482   0.000000
    18  H    3.227421   1.762391   0.000000
    19  H    2.068300   1.770492   1.766758   0.000000
 Stoichiometry    C7H10N2(1+,2)
 Framework group  CS[SG(CN2),X(C6H10)]
 Deg. of freedom    27
 Full point group                 CS      NOp   2
 Largest Abelian subgroup         CS      NOp   2
 Largest concise Abelian subgroup CS      NOp   2
                         Standard orientation:                         
 ---------------------------------------------------------------------
 Center     Atomic      Atomic             Coordinates (Angstroms)
 Number     Number       Type             X           Y           Z
 ---------------------------------------------------------------------
      1          6           0       -0.025674    0.175186   -0.000000
      2          6           0       -0.002215   -0.565074    1.205092
      3          6           0       -0.002215   -0.565074   -1.205092
      4          6           0        0.029647   -1.944419    1.143060
      5          1           0       -0.028897   -0.092228    2.170389
      6          7           0       -0.038202    1.530715   -0.000000
      7          6           0        0.029647   -1.944419   -1.143060
      8          1           0       -0.028897   -0.092228   -2.170389
      9          7           0        0.006818   -2.601241    0.000000
     10          1           0        0.038196   -2.544968    2.040496
     11          6           0       -0.002215    2.259164    1.227101
     12          6           0       -0.002215    2.259164   -1.227101
     13          1           0        0.038196   -2.544968   -2.040496
     14          1           0       -0.819019    1.953832    1.885168
     15          1           0        0.934453    2.082483    1.763480
     16          1           0       -0.089171    3.324136    1.034150
     17          1           0       -0.819019    1.953832   -1.885168
     18          1           0        0.934453    2.082483   -1.763480
     19          1           0       -0.089171    3.324136   -1.034150
 ---------------------------------------------------------------------
 Rotational constants (GHZ):           3.6360779           1.2538323           0.9433501
 Leave Link  202 at Thu Jan 22 16:28:37 2026, MaxMem=  1610612736 cpu:               0.1 elap:               0.1
 (Enter /leonardo/prod/opt/applications/g16/c02/binary/g16/l301.exe)
 Standard basis: def2SVP (5D, 7F)
 Ernie: Thresh=  0.10000D-02 Tol=  0.10000D-05 Strict=F.
 There are   103 symmetry adapted cartesian basis functions of A'  symmetry.
 There are    82 symmetry adapted cartesian basis functions of A"  symmetry.
 There are    97 symmetry adapted basis functions of A'  symmetry.
 There are    79 symmetry adapted basis functions of A"  symmetry.
   176 basis functions,   295 primitive gaussians,   185 cartesian basis functions
    33 alpha electrons       32 beta electrons
       nuclear repulsion energy       436.0189920299 Hartrees.
 IExCor= 4336 DFT=T Ex+Corr=M062X ExCW=0 ScaHFX=  0.540000
 ScaDFX=  1.000000  1.000000  1.000000  1.000000 ScalE2=  1.000000  1.000000
 IRadAn=      5 IRanWt=     -1 IRanGd=            0 ICorTp=0 IEmpDi=131
 NAtoms=   19 NActive=   19 NUniq=   11 SFac= 2.98D+00 NAtFMM=   60 NAOKFM=F Big=F
 Integral buffers will be    131072 words long.
 Raffenetti 2 integral format.
 Two-electron integral symmetry is turned on.
 R6Disp:  Grimme-D3 Dispersion energy=       -0.0005430935 Hartrees.
 Nuclear repulsion after empirical dispersion term =      436.0184489364 Hartrees.
 ------------------------------------------------------------------------------
 Polarizable Continuum Model (PCM)
 =================================
 Model                : PCM.
 Atomic radii         : UFF (Universal Force Field).
 Polarization charges : Total charges.
 Charge compensation  : None.
 Solution method      : On-the-fly selection.
 Cavity type          : Scaled VdW (van der Waals Surface) (Alpha=1.100).
 Cavity algorithm     : GePol (No added spheres)
                        Default sphere list used, NSphG=   19.
                        Lebedev-Laikov grids with approx.  5.0 points / Ang**2.
                        Smoothing algorithm: York/Karplus (Gamma=1.0000).
                        Polarization charges: spherical gaussians, with
                                              point-specific exponents (IZeta= 3).
                        Self-potential: point-specific (ISelfS= 7).
                        Self-field    : sphere-specific E.n sum rule (ISelfD= 2).
 1st derivatives      : Analytical E(r).r(x)/FMM algorithm (CHGder, D1EAlg=3).
                        Cavity 1st derivative terms included.
 Solvent              : Water, Eps=  78.355300 Eps(inf)=   1.777849
 ------------------------------------------------------------------------------
 Spheres list:
 ISph  on   Nord     Re0    Alpha      Xe            Ye            Ze
    1   C      1    1.9255  1.100     -0.025674      0.175186     -0.000000
    2   C      2    1.9255  1.100     -0.002215     -0.565074      1.205092
    3   C      3    1.9255  1.100     -0.002215     -0.565074     -1.205092
    4   C      4    1.9255  1.100      0.029647     -1.944419      1.143060
    5   H      5    1.4430  1.100     -0.028897     -0.092228      2.170389
    6   N      6    1.8300  1.100     -0.038202      1.530715     -0.000000
    7   C      7    1.9255  1.100      0.029647     -1.944419     -1.143060
    8   H      8    1.4430  1.100     -0.028897     -0.092228     -2.170389
    9   N      9    1.8300  1.100      0.006818     -2.601241      0.000000
   10   H     10    1.4430  1.100      0.038196     -2.544968      2.040496
   11   C     11    1.9255  1.100     -0.002215      2.259164      1.227101
   12   C     12    1.9255  1.100     -0.002215      2.259164     -1.227101
   13   H     13    1.4430  1.100      0.038196     -2.544968     -2.040496
   14   H     14    1.4430  1.100     -0.819019      1.953832      1.885168
   15   H     15    1.4430  1.100      0.934453      2.082483      1.763480
   16   H     16    1.4430  1.100     -0.089171      3.324136      1.034150
   17   H     17    1.4430  1.100     -0.819019      1.953832     -1.885168
   18   H     18    1.4430  1.100      0.934453      2.082483     -1.763480
   19   H     19    1.4430  1.100     -0.089171      3.324136     -1.034150
 ------------------------------------------------------------------------------
 GePol: Number of generator spheres                  =      19
 GePol: Total number of spheres                      =      19
 GePol: Number of exposed spheres                    =      19 (100.00%)
 GePol: Number of points                             =    1465
 GePol: Average weight of points                     =       0.13
 GePol: Minimum weight of points                     =   0.35D-10
 GePol: Maximum weight of points                     =    0.20577
 GePol: Number of points with low weight             =      84
 GePol: Fraction of low-weight points (<1% of avg)   =       5.73%
 GePol: Cavity surface area                          =    192.250 Ang**2
 GePol: Cavity volume                                =    193.368 Ang**3
 Leave Link  301 at Thu Jan 22 16:28:38 2026, MaxMem=  1610612736 cpu:               0.1 elap:               0.2
 (Enter /leonardo/prod/opt/applications/g16/c02/binary/g16/l302.exe)
 NPDir=0 NMtPBC=     1 NCelOv=     1 NCel=       1 NClECP=     1 NCelD=      1
         NCelK=      1 NCelE2=     1 NClLst=     1 CellRange=     0.0.
 One-electron integrals computed using PRISM.
 One-electron integral symmetry used in STVInt
   2 Symmetry operations used in ECPInt.
 ECPInt:  NShTT=    3570 NPrTT=   12708 LenC2=    3535 LenP2D=   10046.
 LDataN:  DoStor=T MaxTD1= 4 Len=   56
 NBasis=   176 RedAO= T EigKep=  6.39D-04  NBF=    97    79
 NBsUse=   176 1.00D-06 EigRej= -1.00D+00 NBFU=    97    79
 Precomputing XC quadrature grid using
 IXCGrd= 4 IRadAn=           5 IRanWt=          -1 IRanGd=           0 AccXCQ= 0.00D+00.
 Generated NRdTot=       0 NPtTot=           0 NUsed=           0 NTot=          32
 NSgBfM=   185   185   185   185   185 MxSgAt=    19 MxSgA2=    19.
 Leave Link  302 at Thu Jan 22 16:28:38 2026, MaxMem=  1610612736 cpu:               1.4 elap:               0.3
 (Enter /leonardo/prod/opt/applications/g16/c02/binary/g16/l303.exe)
 DipDrv:  MaxL=1.
 Leave Link  303 at Thu Jan 22 16:28:39 2026, MaxMem=  1610612736 cpu:               0.1 elap:               0.2
 (Enter /leonardo/prod/opt/applications/g16/c02/binary/g16/l401.exe)
 ExpMin= 1.22D-01 ExpMax= 1.71D+03 ExpMxC= 2.58D+02 IAcc=3 IRadAn=         5 AccDes= 0.00D+00
 Harris functional with IExCor= 1009 and IRadAn=       5 diagonalized for initial guess.
 HarFok:  IExCor= 1009 AccDes= 0.00D+00 IRadAn=         5 IDoV= 1 UseB2=F ITyADJ=14
 ICtDFT=  3500011 ScaDFX=  1.000000  1.000000  1.000000  1.000000
 FoFCou: FMM=F IPFlag=           0 FMFlag=      100000 FMFlg1=           0
         NFxFlg=           0 DoJE=T BraDBF=F KetDBF=T FulRan=T
         wScrn=  0.000000 ICntrl=       500 IOpCl=  0 I1Cent=   200000004 NGrid=           0
         NMat0=    1 NMatS0=      1 NMatT0=    0 NMatD0=    1 NMtDS0=    0 NMtDT0=    0
 Petite list used in FoFCou.
 Harris En= -381.333814662213    
 JPrj=0 DoOrth=F DoCkMO=F.
 Initial guess orbital symmetries:
 Alpha Orbitals:
       Occupied  (A') (A') (A") (A') (A') (A") (A') (A") (A') (A')
                 (A') (A') (A") (A") (A') (A") (A') (A') (A") (A')
                 (A') (A') (A") (A") (A") (A') (A') (A") (A") (A')
                 (A") (A') (A')
       Virtual   (A") (A') (A') (A') (A') (A") (A') (A") (A') (A")
                 (A') (A") (A') (A') (A") (A") (A') (A") (A') (A")
                 (A') (A') (A") (A') (A") (A') (A") (A') (A') (A")
                 (A') (A") (A") (A') (A') (A") (A") (A') (A') (A")
                 (A') (A") (A') (A") (A") (A') (A') (A") (A') (A')
                 (A") (A') (A") (A") (A') (A') (A') (A') (A') (A")
                 (A") (A') (A') (A") (A") (A') (A") (A") (A') (A')
                 (A") (A") (A") (A') (A') (A') (A') (A") (A") (A')
                 (A") (A") (A') (A') (A') (A") (A') (A') (A') (A")
                 (A') (A") (A") (A') (A") (A') (A") (A') (A') (A")
                 (A") (A') (A") (A") (A') (A") (A') (A') (A") (A')
                 (A") (A') (A') (A") (A") (A') (A') (A") (A") (A')
                 (A') (A") (A') (A") (A') (A') (A") (A") (A") (A')
                 (A") (A") (A') (A") (A') (A') (A') (A') (A") (A')
                 (A") (A") (A')
 Beta  Orbitals:
       Occupied  (A') (A') (A") (A') (A') (A") (A') (A") (A') (A')
                 (A') (A') (A") (A") (A') (A") (A') (A') (A") (A')
                 (A') (A') (A") (A") (A") (A') (A') (A") (A") (A')
                 (A") (A')
       Virtual   (A') (A") (A') (A') (A') (A') (A") (A') (A") (A')
                 (A") (A') (A") (A') (A') (A") (A") (A') (A") (A')
                 (A") (A') (A') (A") (A') (A") (A') (A") (A') (A')
                 (A") (A') (A") (A") (A') (A') (A") (A") (A') (A')
                 (A") (A') (A") (A') (A") (A") (A') (A') (A") (A')
                 (A') (A") (A') (A") (A") (A') (A') (A') (A') (A')
                 (A") (A") (A') (A') (A") (A") (A') (A") (A") (A')
                 (A') (A") (A") (A") (A') (A') (A') (A') (A") (A")
                 (A') (A") (A") (A') (A') (A') (A") (A') (A') (A')
                 (A") (A') (A") (A") (A') (A") (A') (A") (A') (A')
                 (A") (A") (A') (A") (A") (A') (A") (A') (A') (A")
                 (A') (A") (A') (A') (A") (A") (A') (A') (A") (A")
                 (A') (A') (A") (A') (A") (A') (A') (A") (A") (A")
                 (A') (A") (A") (A') (A") (A') (A') (A') (A') (A")
                 (A') (A") (A") (A')
 The electronic state of the initial guess is 2-A'.
 Initial guess <Sx>= 0.0000 <Sy>= 0.0000 <Sz>= 0.5000 <S**2>= 0.7500 S= 0.5000
 Leave Link  401 at Thu Jan 22 16:28:40 2026, MaxMem=  1610612736 cpu:               2.3 elap:               0.4
 (Enter /leonardo/prod/opt/applications/g16/c02/binary/g16/l502.exe)
 Keep R1 and R2 ints in memory in symmetry-blocked form, NReq=182064045.
 FoFCou: FMM=F IPFlag=           0 FMFlag=           0 FMFlg1=           0
         NFxFlg=           0 DoJE=F BraDBF=F KetDBF=F FulRan=T
         wScrn=  0.000000 ICntrl=       600 IOpCl=  0 I1Cent=           0 NGrid=           0
         NMat0=    1 NMatS0=  15576 NMatT0=    0 NMatD0=    1 NMtDS0=    0 NMtDT0=    0
 Petite list used in FoFCou.
 UHF open shell SCF:
 Using DIIS extrapolation, IDIIS=  1040.
 NGot=  1610612736 LenX=  1489153705 LenY=  1489119039
 Requested convergence on RMS density matrix=1.00D-08 within 128 cycles.
 Requested convergence on MAX density matrix=1.00D-06.
 Requested convergence on             energy=1.00D-06.
 No special actions if energy rises.

 Cycle   1  Pass 1  IDiag  1:
 Inv3:  Mode=1 IEnd=     6438675.
 Iteration    1 A*A^-1 deviation from unit magnitude is 3.44D-15 for   1268.
 Iteration    1 A*A^-1 deviation from orthogonality  is 2.53D-15 for    733    367.
 Iteration    1 A^-1*A deviation from unit magnitude is 2.89D-15 for   1268.
 Iteration    1 A^-1*A deviation from orthogonality  is 1.99D-15 for    923     39.
 E= -381.431664752039    
 DIIS: error= 3.42D-02 at cycle   1 NSaved=   1.
 NSaved= 1 IEnMin= 1 EnMin= -381.431664752039     IErMin= 1 ErrMin= 3.42D-02
 ErrMax= 3.42D-02  0.00D+00 EMaxC= 1.00D-01 BMatC= 6.49D-01 BMatP= 6.49D-01
 IDIUse=3 WtCom= 6.58D-01 WtEn= 3.42D-01
 Coeff-Com:  0.100D+01
 Coeff-En:   0.100D+01
 Coeff:      0.100D+01
 Gap=     0.305 Goal=   None    Shift=    0.000
 Gap=     0.078 Goal=   None    Shift=    0.000
 GapD=    0.078 DampG=0.500 DampE=0.500 DampFc=0.2500 IDamp=-1.
 Damping current iteration by 2.50D-01
 RMSDP=4.49D-03 MaxDP=1.08D-01              OVMax= 2.04D-01

 Cycle   2  Pass 1  IDiag  1:
 E= -381.484282931147     Delta-E=       -0.052618179108 Rises=F Damp=T
 DIIS: error= 2.07D-02 at cycle   2 NSaved=   2.
 NSaved= 2 IEnMin= 2 EnMin= -381.484282931147     IErMin= 2 ErrMin= 2.07D-02
 ErrMax= 2.07D-02  0.00D+00 EMaxC= 1.00D-01 BMatC= 2.23D-01 BMatP= 6.49D-01
 IDIUse=3 WtCom= 7.93D-01 WtEn= 2.07D-01
 Coeff-Com: -0.109D+01 0.209D+01
 Coeff-En:   0.000D+00 0.100D+01
 Coeff:     -0.867D+00 0.187D+01
 Gap=     0.340 Goal=   None    Shift=    0.000
 Gap=     0.177 Goal=   None    Shift=    0.000
 RMSDP=2.30D-03 MaxDP=4.68D-02 DE=-5.26D-02 OVMax= 1.29D-01

 Cycle   3  Pass 1  IDiag  1:
 E= -381.583836671630     Delta-E=       -0.099553740484 Rises=F Damp=F
 DIIS: error= 5.10D-03 at cycle   3 NSaved=   3.
 NSaved= 3 IEnMin= 3 EnMin= -381.583836671630     IErMin= 3 ErrMin= 5.10D-03
 ErrMax= 5.10D-03  0.00D+00 EMaxC= 1.00D-01 BMatC= 1.25D-02 BMatP= 2.23D-01
 IDIUse=3 WtCom= 9.49D-01 WtEn= 5.10D-02
 Coeff-Com: -0.276D+00 0.532D+00 0.743D+00
 Coeff-En:   0.000D+00 0.000D+00 0.100D+01
 Coeff:     -0.262D+00 0.505D+00 0.756D+00
 Gap=     0.325 Goal=   None    Shift=    0.000
 Gap=     0.166 Goal=   None    Shift=    0.000
 RMSDP=4.23D-04 MaxDP=2.26D-02 DE=-9.96D-02 OVMax= 2.62D-02

 Cycle   4  Pass 1  IDiag  1:
 E= -381.586688284181     Delta-E=       -0.002851612551 Rises=F Damp=F
 DIIS: error= 2.28D-03 at cycle   4 NSaved=   4.
 NSaved= 4 IEnMin= 4 EnMin= -381.586688284181     IErMin= 4 ErrMin= 2.28D-03
 ErrMax= 2.28D-03  0.00D+00 EMaxC= 1.00D-01 BMatC= 2.73D-03 BMatP= 1.25D-02
 IDIUse=3 WtCom= 9.77D-01 WtEn= 2.28D-02
 Coeff-Com:  0.119D-01-0.904D-02 0.302D+00 0.695D+00
 Coeff-En:   0.000D+00 0.000D+00 0.000D+00 0.100D+01
 Coeff:      0.117D-01-0.884D-02 0.295D+00 0.702D+00
 Gap=     0.324 Goal=   None    Shift=    0.000
 Gap=     0.175 Goal=   None    Shift=    0.000
 RMSDP=1.64D-04 MaxDP=7.56D-03 DE=-2.85D-03 OVMax= 1.24D-02

 Cycle   5  Pass 1  IDiag  1:
 E= -381.587491912746     Delta-E=       -0.000803628566 Rises=F Damp=F
 DIIS: error= 7.87D-04 at cycle   5 NSaved=   5.
 NSaved= 5 IEnMin= 5 EnMin= -381.587491912746     IErMin= 5 ErrMin= 7.87D-04
 ErrMax= 7.87D-04  0.00D+00 EMaxC= 1.00D-01 BMatC= 1.96D-04 BMatP= 2.73D-03
 IDIUse=3 WtCom= 9.92D-01 WtEn= 7.87D-03
 Coeff-Com:  0.156D-01-0.286D-01 0.236D-01 0.187D+00 0.802D+00
 Coeff-En:   0.000D+00 0.000D+00 0.000D+00 0.000D+00 0.100D+01
 Coeff:      0.154D-01-0.284D-01 0.234D-01 0.186D+00 0.804D+00
 Gap=     0.326 Goal=   None    Shift=    0.000
 Gap=     0.176 Goal=   None    Shift=    0.000
 RMSDP=6.34D-05 MaxDP=2.58D-03 DE=-8.04D-04 OVMax= 5.34D-03

 Cycle   6  Pass 1  IDiag  1:
 E= -381.587601597436     Delta-E=       -0.000109684689 Rises=F Damp=F
 DIIS: error= 5.36D-04 at cycle   6 NSaved=   6.
 NSaved= 6 IEnMin= 6 EnMin= -381.587601597436     IErMin= 6 ErrMin= 5.36D-04
 ErrMax= 5.36D-04  0.00D+00 EMaxC= 1.00D-01 BMatC= 6.12D-05 BMatP= 1.96D-04
 IDIUse=3 WtCom= 9.95D-01 WtEn= 5.36D-03
 Coeff-Com: -0.267D-02-0.187D-03-0.720D-01-0.117D+00 0.250D+00 0.941D+00
 Coeff-En:   0.000D+00 0.000D+00 0.000D+00 0.000D+00 0.000D+00 0.100D+01
 Coeff:     -0.265D-02-0.186D-03-0.716D-01-0.116D+00 0.249D+00 0.941D+00
 Gap=     0.327 Goal=   None    Shift=    0.000
 Gap=     0.177 Goal=   None    Shift=    0.000
 RMSDP=5.05D-05 MaxDP=2.51D-03 DE=-1.10D-04 OVMax= 5.19D-03

 Cycle   7  Pass 1  IDiag  1:
 E= -381.587652405886     Delta-E=       -0.000050808450 Rises=F Damp=F
 DIIS: error= 2.80D-04 at cycle   7 NSaved=   7.
 NSaved= 7 IEnMin= 7 EnMin= -381.587652405886     IErMin= 7 ErrMin= 2.80D-04
 ErrMax= 2.80D-04  0.00D+00 EMaxC= 1.00D-01 BMatC= 1.58D-05 BMatP= 6.12D-05
 IDIUse=3 WtCom= 9.97D-01 WtEn= 2.80D-03
 Coeff-Com: -0.760D-02 0.111D-01-0.341D-01-0.927D-01-0.148D+00 0.361D+00
 Coeff-Com:  0.910D+00
 Coeff-En:   0.000D+00 0.000D+00 0.000D+00 0.000D+00 0.000D+00 0.000D+00
 Coeff-En:   0.100D+01
 Coeff:     -0.758D-02 0.111D-01-0.340D-01-0.924D-01-0.148D+00 0.360D+00
 Coeff:      0.910D+00
 Gap=     0.328 Goal=   None    Shift=    0.000
 Gap=     0.178 Goal=   None    Shift=    0.000
 RMSDP=2.95D-05 MaxDP=1.34D-03 DE=-5.08D-05 OVMax= 3.07D-03

 Cycle   8  Pass 1  IDiag  1:
 E= -381.587666184271     Delta-E=       -0.000013778385 Rises=F Damp=F
 DIIS: error= 1.16D-04 at cycle   8 NSaved=   8.
 NSaved= 8 IEnMin= 8 EnMin= -381.587666184271     IErMin= 8 ErrMin= 1.16D-04
 ErrMax= 1.16D-04  0.00D+00 EMaxC= 1.00D-01 BMatC= 2.74D-06 BMatP= 1.58D-05
 IDIUse=3 WtCom= 9.99D-01 WtEn= 1.16D-03
 Coeff-Com: -0.334D-02 0.527D-02-0.493D-02-0.191D-01-0.887D-01 0.129D-01
 Coeff-Com:  0.327D+00 0.771D+00
 Coeff-En:   0.000D+00 0.000D+00 0.000D+00 0.000D+00 0.000D+00 0.000D+00
 Coeff-En:   0.000D+00 0.100D+01
 Coeff:     -0.333D-02 0.527D-02-0.493D-02-0.190D-01-0.886D-01 0.129D-01
 Coeff:      0.326D+00 0.771D+00
 Gap=     0.328 Goal=   None    Shift=    0.000
 Gap=     0.178 Goal=   None    Shift=    0.000
 RMSDP=1.02D-05 MaxDP=4.21D-04 DE=-1.38D-05 OVMax= 1.17D-03

 Cycle   9  Pass 1  IDiag  1:
 E= -381.587668296262     Delta-E=       -0.000002111991 Rises=F Damp=F
 DIIS: error= 7.17D-05 at cycle   9 NSaved=   9.
 NSaved= 9 IEnMin= 9 EnMin= -381.587668296262     IErMin= 9 ErrMin= 7.17D-05
 ErrMax= 7.17D-05  0.00D+00 EMaxC= 1.00D-01 BMatC= 6.34D-07 BMatP= 2.74D-06
 IDIUse=1 WtCom= 1.00D+00 WtEn= 0.00D+00
 Coeff-Com:  0.102D-02-0.151D-02 0.950D-02 0.276D-01 0.336D-01-0.111D+00
 Coeff-Com: -0.251D+00 0.156D+00 0.114D+01
 Coeff:      0.102D-02-0.151D-02 0.950D-02 0.276D-01 0.336D-01-0.111D+00
 Coeff:     -0.251D+00 0.156D+00 0.114D+01
 Gap=     0.328 Goal=   None    Shift=    0.000
 Gap=     0.178 Goal=   None    Shift=    0.000
 RMSDP=8.19D-06 MaxDP=3.30D-04 DE=-2.11D-06 OVMax= 9.72D-04

 Cycle  10  Pass 1  IDiag  1:
 E= -381.587669129664     Delta-E=       -0.000000833402 Rises=F Damp=F
 DIIS: error= 2.60D-05 at cycle  10 NSaved=  10.
 NSaved=10 IEnMin=10 EnMin= -381.587669129664     IErMin=10 ErrMin= 2.60D-05
 ErrMax= 2.60D-05  0.00D+00 EMaxC= 1.00D-01 BMatC= 9.18D-08 BMatP= 6.34D-07
 IDIUse=1 WtCom= 1.00D+00 WtEn= 0.00D+00
 Coeff-Com:  0.753D-03-0.116D-02 0.298D-02 0.856D-02 0.197D-01-0.273D-01
 Coeff-Com: -0.103D+00-0.462D-01 0.181D+00 0.965D+00
 Coeff:      0.753D-03-0.116D-02 0.298D-02 0.856D-02 0.197D-01-0.273D-01
 Coeff:     -0.103D+00-0.462D-01 0.181D+00 0.965D+00
 Gap=     0.328 Goal=   None    Shift=    0.000
 Gap=     0.178 Goal=   None    Shift=    0.000
 RMSDP=2.97D-06 MaxDP=1.25D-04 DE=-8.33D-07 OVMax= 3.31D-04

 Cycle  11  Pass 1  IDiag  1:
 E= -381.587669264099     Delta-E=       -0.000000134435 Rises=F Damp=F
 DIIS: error= 1.48D-05 at cycle  11 NSaved=  11.
 NSaved=11 IEnMin=11 EnMin= -381.587669264099     IErMin=11 ErrMin= 1.48D-05
 ErrMax= 1.48D-05  0.00D+00 EMaxC= 1.00D-01 BMatC= 4.03D-08 BMatP= 9.18D-08
 IDIUse=1 WtCom= 1.00D+00 WtEn= 0.00D+00
 Coeff-Com:  0.927D-04-0.128D-03-0.187D-02-0.630D-02-0.392D-02 0.252D-01
 Coeff-Com:  0.430D-01-0.432D-01-0.325D+00 0.362D+00 0.949D+00
 Coeff:      0.927D-04-0.128D-03-0.187D-02-0.630D-02-0.392D-02 0.252D-01
 Coeff:      0.430D-01-0.432D-01-0.325D+00 0.362D+00 0.949D+00
 Gap=     0.328 Goal=   None    Shift=    0.000
 Gap=     0.178 Goal=   None    Shift=    0.000
 RMSDP=1.84D-06 MaxDP=6.84D-05 DE=-1.34D-07 OVMax= 2.15D-04

 Cycle  12  Pass 1  IDiag  1:
 E= -381.587669312088     Delta-E=       -0.000000047989 Rises=F Damp=F
 DIIS: error= 8.21D-06 at cycle  12 NSaved=  12.
 NSaved=12 IEnMin=12 EnMin= -381.587669312088     IErMin=12 ErrMin= 8.21D-06
 ErrMax= 8.21D-06  0.00D+00 EMaxC= 1.00D-01 BMatC= 8.04D-09 BMatP= 4.03D-08
 IDIUse=1 WtCom= 1.00D+00 WtEn= 0.00D+00
 Coeff-Com:  0.369D-04-0.181D-04-0.668D-03-0.281D-02-0.406D-02 0.853D-02
 Coeff-Com:  0.272D-01 0.894D-02-0.939D-01-0.147D+00 0.481D-01 0.116D+01
 Coeff:      0.369D-04-0.181D-04-0.668D-03-0.281D-02-0.406D-02 0.853D-02
 Coeff:      0.272D-01 0.894D-02-0.939D-01-0.147D+00 0.481D-01 0.116D+01
 Gap=     0.328 Goal=   None    Shift=    0.000
 Gap=     0.178 Goal=   None    Shift=    0.000
 RMSDP=1.05D-06 MaxDP=4.09D-05 DE=-4.80D-08 OVMax= 1.73D-04

 Cycle  13  Pass 1  IDiag  1:
 E= -381.587669324764     Delta-E=       -0.000000012677 Rises=F Damp=F
 DIIS: error= 3.43D-06 at cycle  13 NSaved=  13.
 NSaved=13 IEnMin=13 EnMin= -381.587669324764     IErMin=13 ErrMin= 3.43D-06
 ErrMax= 3.43D-06  0.00D+00 EMaxC= 1.00D-01 BMatC= 1.97D-09 BMatP= 8.04D-09
 IDIUse=1 WtCom= 1.00D+00 WtEn= 0.00D+00
 Coeff-Com:  0.577D-04-0.675D-04 0.290D-03 0.528D-03-0.142D-03-0.372D-02
 Coeff-Com: -0.221D-02 0.141D-01 0.453D-01-0.102D+00-0.218D+00 0.263D+00
 Coeff-Com:  0.100D+01
 Coeff:      0.577D-04-0.675D-04 0.290D-03 0.528D-03-0.142D-03-0.372D-02
 Coeff:     -0.221D-02 0.141D-01 0.453D-01-0.102D+00-0.218D+00 0.263D+00
 Coeff:      0.100D+01
 Gap=     0.328 Goal=   None    Shift=    0.000
 Gap=     0.178 Goal=   None    Shift=    0.000
 RMSDP=4.64D-07 MaxDP=1.84D-05 DE=-1.27D-08 OVMax= 8.45D-05

 Cycle  14  Pass 1  IDiag  1:
 E= -381.587669327127     Delta-E=       -0.000000002363 Rises=F Damp=F
 DIIS: error= 1.70D-06 at cycle  14 NSaved=  14.
 NSaved=14 IEnMin=14 EnMin= -381.587669327127     IErMin=14 ErrMin= 1.70D-06
 ErrMax= 1.70D-06  0.00D+00 EMaxC= 1.00D-01 BMatC= 2.07D-10 BMatP= 1.97D-09
 IDIUse=1 WtCom= 1.00D+00 WtEn= 0.00D+00
 Coeff-Com:  0.293D-04-0.440D-04 0.233D-03 0.722D-03 0.974D-03-0.291D-02
 Coeff-Com: -0.619D-02 0.212D-02 0.297D-01 0.455D-02-0.784D-01-0.161D+00
 Coeff-Com:  0.253D+00 0.957D+00
 Coeff:      0.293D-04-0.440D-04 0.233D-03 0.722D-03 0.974D-03-0.291D-02
 Coeff:     -0.619D-02 0.212D-02 0.297D-01 0.455D-02-0.784D-01-0.161D+00
 Coeff:      0.253D+00 0.957D+00
 Gap=     0.328 Goal=   None    Shift=    0.000
 Gap=     0.178 Goal=   None    Shift=    0.000
 RMSDP=1.88D-07 MaxDP=7.91D-06 DE=-2.36D-09 OVMax= 3.98D-05

 Cycle  15  Pass 1  IDiag  1:
 E= -381.587669327449     Delta-E=       -0.000000000322 Rises=F Damp=F
 DIIS: error= 2.94D-07 at cycle  15 NSaved=  15.
 NSaved=15 IEnMin=15 EnMin= -381.587669327449     IErMin=15 ErrMin= 2.94D-07
 ErrMax= 2.94D-07  0.00D+00 EMaxC= 1.00D-01 BMatC= 1.22D-11 BMatP= 2.07D-10
 IDIUse=1 WtCom= 1.00D+00 WtEn= 0.00D+00
 Coeff-Com: -0.573D-05 0.705D-05-0.489D-04-0.135D-03-0.806D-04 0.625D-03
 Coeff-Com:  0.108D-02-0.119D-02-0.882D-02 0.973D-02 0.280D-01-0.359D-02
 Coeff-Com: -0.137D+00-0.856D-01 0.120D+01
 Coeff:     -0.573D-05 0.705D-05-0.489D-04-0.135D-03-0.806D-04 0.625D-03
 Coeff:      0.108D-02-0.119D-02-0.882D-02 0.973D-02 0.280D-01-0.359D-02
 Coeff:     -0.137D+00-0.856D-01 0.120D+01
 Gap=     0.328 Goal=   None    Shift=    0.000
 Gap=     0.178 Goal=   None    Shift=    0.000
 RMSDP=4.44D-08 MaxDP=1.83D-06 DE=-3.22D-10 OVMax= 8.88D-06

 Cycle  16  Pass 1  IDiag  1:
 E= -381.587669327470     Delta-E=       -0.000000000020 Rises=F Damp=F
 DIIS: error= 4.97D-08 at cycle  16 NSaved=  16.
 NSaved=16 IEnMin=16 EnMin= -381.587669327470     IErMin=16 ErrMin= 4.97D-08
 ErrMax= 4.97D-08  0.00D+00 EMaxC= 1.00D-01 BMatC= 6.26D-13 BMatP= 1.22D-11
 IDIUse=1 WtCom= 1.00D+00 WtEn= 0.00D+00
 Coeff-Com: -0.878D-06 0.151D-05-0.968D-05-0.342D-04-0.542D-04 0.113D-03
 Coeff-Com:  0.314D-03 0.341D-04-0.102D-02-0.139D-02 0.145D-02 0.106D-01
 Coeff-Com:  0.399D-03-0.511D-01-0.120D+00 0.116D+01
 Coeff:     -0.878D-06 0.151D-05-0.968D-05-0.342D-04-0.542D-04 0.113D-03
 Coeff:      0.314D-03 0.341D-04-0.102D-02-0.139D-02 0.145D-02 0.106D-01
 Coeff:      0.399D-03-0.511D-01-0.120D+00 0.116D+01
 Gap=     0.328 Goal=   None    Shift=    0.000
 Gap=     0.178 Goal=   None    Shift=    0.000
 RMSDP=8.90D-09 MaxDP=3.79D-07 DE=-2.02D-11 OVMax= 1.25D-06

 Error on total polarization charges =  0.00641
 SCF Done:  E(UM062X) =  -381.587669327     A.U. after   16 cycles
            NFock= 16  Conv=0.89D-08     -V/T= 2.0098
 <Sx>= 0.0000 <Sy>= 0.0000 <Sz>= 0.5000 <S**2>= 0.7768 S= 0.5133
 <L.S>=  0.00000000000    
 KE= 3.778746120673D+02 PE=-1.742980959252D+03 EE= 5.475002289206D+02
 Annihilation of the first spin contaminant:
 S**2 before annihilation     0.7768,   after     0.7505
 Leave Link  502 at Thu Jan 22 16:28:52 2026, MaxMem=  1610612736 cpu:             113.5 elap:              12.4
 (Enter /leonardo/prod/opt/applications/g16/c02/binary/g16/l601.exe)
 Copying SCF densities to generalized density rwf, IOpCl= 1 IROHF=0.

 **********************************************************************

            Population analysis using the SCF Density.

 **********************************************************************

 Orbital symmetries:
 Alpha Orbitals:
       Occupied  (A') (A') (A') (A") (A') (A') (A") (A") (A') (A')
                 (A') (A') (A") (A") (A') (A") (A') (A') (A") (A')
                 (A') (A') (A") (A") (A') (A") (A') (A") (A") (A')
                 (A") (A') (A')
       Virtual   (A') (A") (A') (A') (A") (A') (A") (A') (A') (A')
                 (A") (A") (A') (A") (A') (A") (A') (A') (A") (A")
                 (A') (A') (A") (A') (A") (A") (A') (A') (A') (A")
                 (A') (A") (A") (A') (A') (A") (A') (A') (A") (A')
                 (A") (A") (A') (A') (A") (A") (A') (A") (A') (A")
                 (A') (A') (A") (A') (A") (A') (A') (A') (A') (A")
                 (A') (A") (A') (A") (A") (A') (A') (A") (A") (A')
                 (A") (A') (A") (A") (A') (A') (A") (A') (A") (A')
                 (A") (A") (A') (A') (A') (A') (A") (A') (A') (A")
                 (A") (A') (A") (A") (A') (A") (A') (A') (A') (A")
                 (A") (A') (A") (A") (A') (A") (A') (A') (A") (A")
                 (A') (A') (A") (A') (A") (A') (A') (A") (A") (A')
                 (A') (A') (A") (A") (A') (A') (A") (A") (A') (A")
                 (A") (A") (A') (A") (A') (A') (A') (A') (A") (A')
                 (A") (A") (A')
 Beta  Orbitals:
       Occupied  (A') (A') (A') (A") (A') (A') (A") (A") (A') (A')
                 (A') (A') (A") (A") (A') (A") (A') (A') (A") (A')
                 (A') (A') (A") (A") (A') (A") (A') (A") (A") (A')
                 (A") (A')
       Virtual   (A') (A") (A') (A') (A') (A") (A') (A") (A') (A')
                 (A") (A') (A") (A') (A") (A') (A") (A') (A') (A")
                 (A") (A') (A') (A") (A') (A") (A") (A') (A') (A')
                 (A") (A') (A") (A") (A') (A') (A") (A') (A') (A")
                 (A') (A") (A") (A') (A") (A') (A") (A") (A') (A')
                 (A") (A') (A') (A") (A") (A') (A') (A') (A') (A')
                 (A") (A") (A') (A') (A") (A") (A') (A') (A") (A")
                 (A') (A") (A') (A") (A") (A') (A') (A") (A') (A")
                 (A') (A") (A") (A') (A') (A') (A') (A") (A') (A')
                 (A") (A") (A') (A") (A") (A') (A") (A') (A') (A')
                 (A") (A") (A') (A") (A") (A') (A") (A') (A') (A")
                 (A") (A') (A') (A") (A') (A") (A') (A') (A") (A")
                 (A') (A') (A') (A") (A") (A') (A') (A") (A") (A')
                 (A") (A") (A") (A') (A") (A') (A') (A') (A') (A")
                 (A') (A") (A") (A')
 The electronic state is 2-A'.
 Alpha  occ. eigenvalues --  -14.91745 -14.79728 -10.66805 -10.62567 -10.62561
 Alpha  occ. eigenvalues --  -10.62264 -10.62263 -10.61426 -10.61426  -1.16811
 Alpha  occ. eigenvalues --   -1.09347  -0.94638  -0.90742  -0.87462  -0.82863
 Alpha  occ. eigenvalues --   -0.75661  -0.71392  -0.67270  -0.63497  -0.63173
 Alpha  occ. eigenvalues --   -0.58483  -0.57165  -0.57072  -0.54269  -0.52080
 Alpha  occ. eigenvalues --   -0.51863  -0.51622  -0.48795  -0.46272  -0.44278
 Alpha  occ. eigenvalues --   -0.36507  -0.36200  -0.34843
 Alpha virt. eigenvalues --   -0.02032  -0.01976   0.08613   0.10429   0.11624
 Alpha virt. eigenvalues --    0.12014   0.14410   0.15791   0.15906   0.16071
 Alpha virt. eigenvalues --    0.16770   0.17096   0.18202   0.20112   0.21921
 Alpha virt. eigenvalues --    0.24429   0.28167   0.29795   0.31507   0.33066
 Alpha virt. eigenvalues --    0.35382   0.39356   0.40956   0.41238   0.42372
 Alpha virt. eigenvalues --    0.45996   0.46280   0.47774   0.48670   0.51481
 Alpha virt. eigenvalues --    0.52980   0.55721   0.56663   0.56832   0.62007
 Alpha virt. eigenvalues --    0.63198   0.63985   0.64911   0.65738   0.66437
 Alpha virt. eigenvalues --    0.66775   0.67970   0.69568   0.70442   0.70612
 Alpha virt. eigenvalues --    0.71744   0.72289   0.72551   0.73993   0.75841
 Alpha virt. eigenvalues --    0.76668   0.79045   0.81928   0.85857   0.86324
 Alpha virt. eigenvalues --    0.89172   0.92265   0.93239   0.98639   1.06812
 Alpha virt. eigenvalues --    1.08847   1.08880   1.11859   1.14542   1.17074
 Alpha virt. eigenvalues --    1.21044   1.24653   1.25533   1.26650   1.29305
 Alpha virt. eigenvalues --    1.32803   1.35387   1.35996   1.38506   1.49095
 Alpha virt. eigenvalues --    1.50818   1.52422   1.54018   1.55250   1.55423
 Alpha virt. eigenvalues --    1.68516   1.70611   1.70850   1.72697   1.74044
 Alpha virt. eigenvalues --    1.75184   1.76798   1.77623   1.80235   1.80685
 Alpha virt. eigenvalues --    1.81160   1.81550   1.83898   1.87955   1.88154
 Alpha virt. eigenvalues --    1.91293   1.91602   1.92284   1.95138   1.96932
 Alpha virt. eigenvalues --    1.98834   2.01130   2.06303   2.08972   2.11425
 Alpha virt. eigenvalues --    2.15956   2.18893   2.19783   2.20816   2.21244
 Alpha virt. eigenvalues --    2.23619   2.27575   2.32768   2.32880   2.37288
 Alpha virt. eigenvalues --    2.39464   2.40507   2.42615   2.45525   2.51818
 Alpha virt. eigenvalues --    2.57261   2.59415   2.61421   2.64850   2.65646
 Alpha virt. eigenvalues --    2.67619   2.72618   2.74418   2.79379   2.80903
 Alpha virt. eigenvalues --    2.84091   2.88953   2.90064   2.91100   2.91616
 Alpha virt. eigenvalues --    2.96236   3.00335   3.02735   3.12251   3.19596
 Alpha virt. eigenvalues --    3.24902   3.38933   3.65221
  Beta  occ. eigenvalues --  -14.90854 -14.79518 -10.66909 -10.62604 -10.62598
  Beta  occ. eigenvalues --  -10.62337 -10.62337 -10.61299 -10.61298  -1.14522
  Beta  occ. eigenvalues --   -1.08738  -0.93871  -0.90339  -0.86901  -0.81995
  Beta  occ. eigenvalues --   -0.75338  -0.70892  -0.66417  -0.62899  -0.59249
  Beta  occ. eigenvalues --   -0.57918  -0.57056  -0.56328  -0.54086  -0.51353
  Beta  occ. eigenvalues --   -0.50697  -0.50649  -0.48608  -0.46031  -0.41039
  Beta  occ. eigenvalues --   -0.35476  -0.35452
  Beta virt. eigenvalues --   -0.17662  -0.01102   0.00174   0.08397   0.10568
  Beta virt. eigenvalues --    0.11369   0.11980   0.14385   0.15916   0.16217
  Beta virt. eigenvalues --    0.16458   0.16981   0.17262   0.18354   0.20095
  Beta virt. eigenvalues --    0.22033   0.24690   0.28477   0.30123   0.31709
  Beta virt. eigenvalues --    0.33241   0.35399   0.39810   0.41064   0.41622
  Beta virt. eigenvalues --    0.42522   0.46180   0.46378   0.47884   0.48861
  Beta virt. eigenvalues --    0.52042   0.53186   0.55799   0.56733   0.56968
  Beta virt. eigenvalues --    0.62282   0.63588   0.63842   0.65115   0.65906
  Beta virt. eigenvalues --    0.66353   0.67053   0.67910   0.69821   0.70658
  Beta virt. eigenvalues --    0.70870   0.71844   0.72244   0.72648   0.73900
  Beta virt. eigenvalues --    0.75874   0.76867   0.79581   0.82074   0.86455
  Beta virt. eigenvalues --    0.88701   0.90064   0.93491   0.93981   0.99248
  Beta virt. eigenvalues --    1.06947   1.09061   1.09097   1.12516   1.14879
  Beta virt. eigenvalues --    1.17380   1.21798   1.25542   1.26369   1.27072
  Beta virt. eigenvalues --    1.29997   1.32858   1.35874   1.35979   1.38558
  Beta virt. eigenvalues --    1.49327   1.51735   1.52561   1.54249   1.55290
  Beta virt. eigenvalues --    1.55748   1.69346   1.70584   1.71242   1.73167
  Beta virt. eigenvalues --    1.74274   1.75583   1.77098   1.77838   1.80306
  Beta virt. eigenvalues --    1.80925   1.81193   1.81569   1.84140   1.88375
  Beta virt. eigenvalues --    1.88391   1.91602   1.91801   1.92633   1.95409
  Beta virt. eigenvalues --    1.96921   1.99210   2.01191   2.06513   2.09218
  Beta virt. eigenvalues --    2.11677   2.16190   2.19944   2.20604   2.20969
  Beta virt. eigenvalues --    2.22012   2.24005   2.27875   2.33521   2.33543
  Beta virt. eigenvalues --    2.38056   2.39617   2.40568   2.42850   2.45409
  Beta virt. eigenvalues --    2.52243   2.58500   2.60180   2.61993   2.65120
  Beta virt. eigenvalues --    2.66608   2.68164   2.73916   2.74801   2.80283
  Beta virt. eigenvalues --    2.81762   2.84960   2.89047   2.90696   2.91424
  Beta virt. eigenvalues --    2.92083   2.96831   3.00776   3.03226   3.12801
  Beta virt. eigenvalues --    3.20396   3.25470   3.39966   3.65789
          Condensed to atoms (all electrons):
               1          2          3          4          5          6
     1  C    5.107140   0.324922   0.324922   0.015217  -0.059472   0.376340
     2  C    0.324922   5.026504  -0.018484   0.450300   0.434124  -0.085191
     3  C    0.324922  -0.018484   5.026504  -0.060886   0.010425  -0.085191
     4  C    0.015217   0.450300  -0.060886   4.675589  -0.031165   0.005706
     5  H   -0.059472   0.434124   0.010425  -0.031165   0.582984  -0.013821
     6  N    0.376340  -0.085191  -0.085191   0.005706  -0.013821   6.508431
     7  C    0.015217  -0.060886   0.450300  -0.057382  -0.000497   0.005706
     8  H   -0.059472   0.010425   0.434124  -0.000497   0.000037  -0.013821
     9  N   -0.072094  -0.026301  -0.026301   0.496472   0.006090  -0.000381
    10  H    0.007783  -0.058993   0.000755   0.433275  -0.007047  -0.000085
    11  C   -0.063218   0.011445   0.006837   0.001218   0.010889   0.306910
    12  C   -0.063218   0.006837   0.011445  -0.000081  -0.000085   0.306910
    13  H    0.007783   0.000755  -0.058993   0.003819   0.000049  -0.000085
    14  H   -0.012940   0.002230  -0.000275   0.000985  -0.002421  -0.011652
    15  H   -0.009722   0.001367  -0.000312   0.000500  -0.001942  -0.015004
    16  H    0.006022   0.000492  -0.000145  -0.000046   0.000213  -0.016265
    17  H   -0.012940  -0.000275   0.002230  -0.000021  -0.000017  -0.011652
    18  H   -0.009722  -0.000312   0.001367  -0.000009  -0.000010  -0.015004
    19  H    0.006022  -0.000145   0.000492   0.000011  -0.000004  -0.016265
               7          8          9         10         11         12
     1  C    0.015217  -0.059472  -0.072094   0.007783  -0.063218  -0.063218
     2  C   -0.060886   0.010425  -0.026301  -0.058993   0.011445   0.006837
     3  C    0.450300   0.434124  -0.026301   0.000755   0.006837   0.011445
     4  C   -0.057382  -0.000497   0.496472   0.433275   0.001218  -0.000081
     5  H   -0.000497   0.000037   0.006090  -0.007047   0.010889  -0.000085
     6  N    0.005706  -0.013821  -0.000381  -0.000085   0.306910   0.306910
     7  C    4.675589  -0.031165   0.496472   0.003819  -0.000081   0.001218
     8  H   -0.031165   0.582984   0.006090   0.000049  -0.000085   0.010889
     9  N    0.496472   0.006090   6.345641  -0.039704   0.000032   0.000032
    10  H    0.003819   0.000049  -0.039704   0.587893  -0.000046   0.000007
    11  C   -0.000081  -0.000085   0.000032  -0.000046   4.531406  -0.042042
    12  C    0.001218   0.010889   0.000032   0.000007  -0.042042   4.531406
    13  H    0.433275  -0.007047  -0.039704  -0.000272   0.000007  -0.000046
    14  H   -0.000021  -0.000017  -0.000015   0.000011   0.399451   0.002885
    15  H   -0.000009  -0.000010  -0.000011   0.000005   0.401132   0.001959
    16  H    0.000011  -0.000004   0.000001  -0.000000   0.405114  -0.008716
    17  H    0.000985  -0.002421  -0.000015  -0.000000   0.002885   0.399451
    18  H    0.000500  -0.001942  -0.000011  -0.000000   0.001959   0.401132
    19  H   -0.000046   0.000213   0.000001  -0.000000  -0.008716   0.405114
              13         14         15         16         17         18
     1  C    0.007783  -0.012940  -0.009722   0.006022  -0.012940  -0.009722
     2  C    0.000755   0.002230   0.001367   0.000492  -0.000275  -0.000312
     3  C   -0.058993  -0.000275  -0.000312  -0.000145   0.002230   0.001367
     4  C    0.003819   0.000985   0.000500  -0.000046  -0.000021  -0.000009
     5  H    0.000049  -0.002421  -0.001942   0.000213  -0.000017  -0.000010
     6  N   -0.000085  -0.011652  -0.015004  -0.016265  -0.011652  -0.015004
     7  C    0.433275  -0.000021  -0.000009   0.000011   0.000985   0.000500
     8  H   -0.007047  -0.000017  -0.000010  -0.000004  -0.002421  -0.001942
     9  N   -0.039704  -0.000015  -0.000011   0.000001  -0.000015  -0.000011
    10  H   -0.000272   0.000011   0.000005  -0.000000  -0.000000  -0.000000
    11  C    0.000007   0.399451   0.401132   0.405114   0.002885   0.001959
    12  C   -0.000046   0.002885   0.001959  -0.008716   0.399451   0.401132
    13  H    0.587893  -0.000000  -0.000000  -0.000000   0.000011   0.000005
    14  H   -0.000000   0.523787  -0.016827  -0.013581   0.000021  -0.000266
    15  H   -0.000000  -0.016827   0.520664  -0.013647  -0.000266   0.000392
    16  H   -0.000000  -0.013581  -0.013647   0.523634   0.000391   0.000007
    17  H    0.000011   0.000021  -0.000266   0.000391   0.523787  -0.016827
    18  H    0.000005  -0.000266   0.000392   0.000007  -0.016827   0.520664
    19  H   -0.000000   0.000391   0.000007   0.003588  -0.013581  -0.013647
              19
     1  C    0.006022
     2  C   -0.000145
     3  C    0.000492
     4  C    0.000011
     5  H   -0.000004
     6  N   -0.016265
     7  C   -0.000046
     8  H    0.000213
     9  N    0.000001
    10  H   -0.000000
    11  C   -0.008716
    12  C    0.405114
    13  H   -0.000000
    14  H    0.000391
    15  H    0.000007
    16  H    0.003588
    17  H   -0.013581
    18  H   -0.013647
    19  H    0.523634
          Atomic-Atomic Spin Densities.
               1          2          3          4          5          6
     1  C   -0.134100   0.021629   0.021629   0.002468   0.000224  -0.056718
     2  C    0.021629   0.247349   0.010263  -0.010202   0.001549  -0.015596
     3  C    0.021629   0.010263   0.247349  -0.001661  -0.000053  -0.015596
     4  C    0.002468  -0.010202  -0.001661  -0.111318  -0.000014   0.000171
     5  H    0.000224   0.001549  -0.000053  -0.000014  -0.012558   0.000029
     6  N   -0.056718  -0.015596  -0.015596   0.000171   0.000029   0.766195
     7  C    0.002468  -0.001661  -0.010202   0.004161   0.000003   0.000171
     8  H    0.000224  -0.000053   0.001549   0.000003  -0.000001   0.000029
     9  N   -0.001092  -0.008306  -0.008306   0.005038  -0.000118   0.000051
    10  H   -0.000045  -0.000123   0.000018  -0.000004  -0.000009  -0.000000
    11  C    0.003809   0.001630  -0.000022  -0.000029  -0.000195  -0.028477
    12  C    0.003809  -0.000022   0.001630   0.000004  -0.000010  -0.028477
    13  H   -0.000045   0.000018  -0.000123  -0.000067  -0.000001  -0.000000
    14  H    0.000791   0.001677   0.000092   0.000011  -0.000283  -0.009224
    15  H    0.001748   0.002192   0.000200  -0.000029   0.000277  -0.012302
    16  H   -0.000127   0.000012  -0.000002   0.000000  -0.000008  -0.000109
    17  H    0.000791   0.000092   0.001677   0.000000  -0.000004  -0.009224
    18  H    0.001748   0.000200   0.002192  -0.000006   0.000006  -0.012302
    19  H   -0.000127  -0.000002   0.000012  -0.000000   0.000000  -0.000109
               7          8          9         10         11         12
     1  C    0.002468   0.000224  -0.001092  -0.000045   0.003809   0.003809
     2  C   -0.001661  -0.000053  -0.008306  -0.000123   0.001630  -0.000022
     3  C   -0.010202   0.001549  -0.008306   0.000018  -0.000022   0.001630
     4  C    0.004161   0.000003   0.005038  -0.000004  -0.000029   0.000004
     5  H    0.000003  -0.000001  -0.000118  -0.000009  -0.000195  -0.000010
     6  N    0.000171   0.000029   0.000051  -0.000000  -0.028477  -0.028477
     7  C   -0.111318  -0.000014   0.005038  -0.000067   0.000004  -0.000029
     8  H   -0.000014  -0.012558  -0.000118  -0.000001  -0.000010  -0.000195
     9  N    0.005038  -0.000118   0.208276   0.000166  -0.000000  -0.000000
    10  H   -0.000067  -0.000001   0.000166   0.003771   0.000000  -0.000000
    11  C    0.000004  -0.000010  -0.000000   0.000000  -0.036202   0.002152
    12  C   -0.000029  -0.000195  -0.000000  -0.000000   0.002152  -0.036202
    13  H   -0.000004  -0.000009   0.000166  -0.000004  -0.000000   0.000000
    14  H    0.000000  -0.000004  -0.000008  -0.000003   0.008289   0.000162
    15  H   -0.000006   0.000006  -0.000003   0.000002   0.010624   0.000202
    16  H   -0.000000   0.000000  -0.000000  -0.000000   0.000746   0.000235
    17  H    0.000011  -0.000283  -0.000008  -0.000000   0.000162   0.008289
    18  H   -0.000029   0.000277  -0.000003   0.000000   0.000202   0.010624
    19  H    0.000000  -0.000008  -0.000000  -0.000000   0.000235   0.000746
              13         14         15         16         17         18
     1  C   -0.000045   0.000791   0.001748  -0.000127   0.000791   0.001748
     2  C    0.000018   0.001677   0.002192   0.000012   0.000092   0.000200
     3  C   -0.000123   0.000092   0.000200  -0.000002   0.001677   0.002192
     4  C   -0.000067   0.000011  -0.000029   0.000000   0.000000  -0.000006
     5  H   -0.000001  -0.000283   0.000277  -0.000008  -0.000004   0.000006
     6  N   -0.000000  -0.009224  -0.012302  -0.000109  -0.009224  -0.012302
     7  C   -0.000004   0.000000  -0.000006  -0.000000   0.000011  -0.000029
     8  H   -0.000009  -0.000004   0.000006   0.000000  -0.000283   0.000277
     9  N    0.000166  -0.000008  -0.000003  -0.000000  -0.000008  -0.000003
    10  H   -0.000004  -0.000003   0.000002  -0.000000  -0.000000   0.000000
    11  C   -0.000000   0.008289   0.010624   0.000746   0.000162   0.000202
    12  C    0.000000   0.000162   0.000202   0.000235   0.008289   0.010624
    13  H    0.003771  -0.000000   0.000000  -0.000000  -0.000003   0.000002
    14  H   -0.000000   0.042492  -0.009415   0.000704   0.000333  -0.000209
    15  H    0.000000  -0.009415   0.051297  -0.000938  -0.000209   0.000624
    16  H   -0.000000   0.000704  -0.000938   0.001026   0.000066  -0.000084
    17  H   -0.000003   0.000333  -0.000209   0.000066   0.042492  -0.009415
    18  H    0.000002  -0.000209   0.000624  -0.000084  -0.009415   0.051297
    19  H   -0.000000   0.000066  -0.000084   0.000006   0.000704  -0.000938
              19
     1  C   -0.000127
     2  C   -0.000002
     3  C    0.000012
     4  C   -0.000000
     5  H    0.000000
     6  N   -0.000109
     7  C    0.000000
     8  H   -0.000008
     9  N   -0.000000
    10  H   -0.000000
    11  C    0.000235
    12  C    0.000746
    13  H   -0.000000
    14  H    0.000066
    15  H   -0.000084
    16  H    0.000006
    17  H    0.000704
    18  H   -0.000938
    19  H    0.001026
 Mulliken charges and spin densities:
               1          2
     1  C    0.171432  -0.130914
     2  C   -0.018814   0.250647
     3  C   -0.018814   0.250647
     4  C    0.066996  -0.111473
     5  H    0.071672  -0.011165
     6  N   -0.225584   0.578511
     7  C    0.066996  -0.111473
     8  H    0.071672  -0.011165
     9  N   -0.146293   0.200774
    10  H    0.072553   0.003702
    11  C    0.034907  -0.037081
    12  C    0.034907  -0.037081
    13  H    0.072553   0.003702
    14  H    0.128253   0.035472
    15  H    0.131725   0.044185
    16  H    0.112931   0.001528
    17  H    0.128253   0.035472
    18  H    0.131725   0.044185
    19  H    0.112931   0.001528
 Sum of Mulliken charges =   1.00000   1.00000
 Mulliken charges and spin densities with hydrogens summed into heavy atoms:
               1          2
     1  C    0.171432  -0.130914
     2  C    0.052858   0.239482
     3  C    0.052858   0.239482
     4  C    0.139549  -0.107772
     6  N   -0.225584   0.578511
     7  C    0.139549  -0.107772
     9  N   -0.146293   0.200774
    11  C    0.407816   0.044104
    12  C    0.407816   0.044104
 Electronic spatial extent (au):  <R**2>=           1210.7198
 Charge=              1.0000 electrons
 Dipole moment (field-independent basis, Debye):
    X=              0.0506    Y=              7.2927    Z=             -0.0000  Tot=              7.2928
 Quadrupole moment (field-independent basis, Debye-Ang):
   XX=            -52.3581   YY=            -36.5238   ZZ=            -34.7319
   XY=             -0.0905   XZ=             -0.0000   YZ=              0.0000
 Traceless Quadrupole moment (field-independent basis, Debye-Ang):
   XX=            -11.1535   YY=              4.6808   ZZ=              6.4727
   XY=             -0.0905   XZ=             -0.0000   YZ=              0.0000
 Octapole moment (field-independent basis, Debye-Ang**2):
  XXX=              0.4618  YYY=             76.5788  ZZZ=             -0.0000  XYY=              0.3634
  XXY=              6.9903  XXZ=              0.0000  XZZ=             -0.1983  YZZ=              4.7208
  YYZ=             -0.0000  XYZ=             -0.0000
 Hexadecapole moment (field-independent basis, Debye-Ang**3):
 XXXX=            -63.2458 YYYY=          -1018.2981 ZZZZ=           -360.5715 XXXY=              4.6847
 XXXZ=             -0.0000 YYYX=              0.2039 YYYZ=             -0.0000 ZZZX=             -0.0000
 ZZZY=              0.0000 XXYY=           -192.7307 XXZZ=            -79.3298 YYZZ=           -185.2614
 XXYZ=             -0.0000 YYXZ=             -0.0000 ZZXY=              0.8333
 N-N= 4.360184489364D+02 E-N=-1.742980958329D+03  KE= 3.778746120673D+02
 Symmetry A'   KE= 2.549480412315D+02
 Symmetry A"   KE= 1.229265708358D+02
 Symmetry A'   SP= 1.000000000000D+00
 Symmetry A"   SP= 1.364210340566D-14
                          Isotropic Fermi Contact Couplings
        Atom                 a.u.       MegaHertz       Gauss      10(-4) cm-1
     1  C(13)             -0.05154     -57.94314     -20.67555     -19.32775
     2  C(13)              0.03334      37.48327      13.37496      12.50307
     3  C(13)              0.03334      37.48327      13.37496      12.50307
     4  C(13)             -0.02872     -32.28847     -11.52133     -10.77027
     5  H(1)              -0.00357     -15.96521      -5.69678      -5.32542
     6  N(14)              0.17555      56.72119      20.23953      18.92015
     7  C(13)             -0.02872     -32.28847     -11.52133     -10.77027
     8  H(1)              -0.00357     -15.96521      -5.69678      -5.32542
     9  N(14)              0.04264      13.77693       4.91595       4.59549
    10  H(1)               0.00106       4.73364       1.68908       1.57897
    11  C(13)             -0.02649     -29.77630     -10.62492      -9.93230
    12  C(13)             -0.02649     -29.77630     -10.62492      -9.93230
    13  H(1)               0.00106       4.73364       1.68908       1.57897
    14  H(1)               0.01574      70.35270      25.10359      23.46713
    15  H(1)               0.01951      87.18701      31.11049      29.08246
    16  H(1)               0.00052       2.33537       0.83332       0.77900
    17  H(1)               0.01574      70.35270      25.10359      23.46713
    18  H(1)               0.01951      87.18701      31.11049      29.08246
    19  H(1)               0.00052       2.33537       0.83332       0.77900
 --------------------------------------------------------
       Center         ----  Spin Dipole Couplings  ----
                      3XX-RR        3YY-RR        3ZZ-RR
 --------------------------------------------------------
     1   Atom       -0.085042      0.059340      0.025702
     2   Atom        0.214482     -0.107801     -0.106680
     3   Atom        0.214482     -0.107801     -0.106680
     4   Atom       -0.093226      0.048772      0.044454
     5   Atom       -0.005369     -0.009153      0.014522
     6   Atom        1.375404     -0.691965     -0.683439
     7   Atom       -0.093226      0.048772      0.044454
     8   Atom       -0.005369     -0.009153      0.014522
     9   Atom        0.387071     -0.184326     -0.202745
    10   Atom       -0.003891      0.003526      0.000365
    11   Atom        0.013202     -0.012218     -0.000984
    12   Atom        0.013202     -0.012218     -0.000984
    13   Atom       -0.003891      0.003526      0.000365
    14   Atom       -0.005351     -0.003683      0.009033
    15   Atom       -0.002140     -0.003802      0.005942
    16   Atom       -0.006593      0.009037     -0.002444
    17   Atom       -0.005351     -0.003683      0.009033
    18   Atom       -0.002140     -0.003802      0.005942
    19   Atom       -0.006593      0.009037     -0.002444
 --------------------------------------------------------
                        XY            XZ            YZ
 --------------------------------------------------------
     1   Atom       -0.004918     -0.000000      0.000000
     2   Atom        0.023078      0.002452     -0.001439
     3   Atom        0.023078     -0.002452      0.001439
     4   Atom       -0.002244      0.001761      0.005521
     5   Atom        0.000103     -0.001141      0.007541
     6   Atom       -0.036828      0.000000      0.000000
     7   Atom       -0.002244     -0.001761     -0.005521
     8   Atom        0.000103      0.001141     -0.007541
     9   Atom       -0.063798      0.000000     -0.000000
    10   Atom       -0.000016      0.000034      0.002998
    11   Atom        0.001059      0.001325      0.012818
    12   Atom        0.001059     -0.001325     -0.012818
    13   Atom       -0.000016     -0.000034     -0.002998
    14   Atom       -0.000407     -0.008089      0.002830
    15   Atom        0.001006      0.009351      0.003981
    16   Atom       -0.000069     -0.000235      0.008143
    17   Atom       -0.000407      0.008089     -0.002830
    18   Atom        0.001006     -0.009351     -0.003981
    19   Atom       -0.000069      0.000235     -0.008143
 --------------------------------------------------------


 ---------------------------------------------------------------------------------
              Anisotropic Spin Dipole Couplings in Principal Axis System
 ---------------------------------------------------------------------------------

       Atom             a.u.   MegaHertz   Gauss  10(-4) cm-1        Axes

              Baa    -0.0852   -11.434    -4.080    -3.814  0.9994  0.0340  0.0000
     1 C(13)  Bbb     0.0257     3.449     1.231     1.150  0.0000 -0.0000  1.0000
              Bcc     0.0595     7.985     2.849     2.664 -0.0340  0.9994  0.0000
 
              Baa    -0.1102   -14.786    -5.276    -4.932 -0.0675  0.9056  0.4188
     2 C(13)  Bbb    -0.1060   -14.218    -5.073    -4.743  0.0232 -0.4182  0.9081
              Bcc     0.2161    29.004    10.349     9.675  0.9974  0.0710  0.0073
 
              Baa    -0.1102   -14.786    -5.276    -4.932 -0.0675  0.9056 -0.4188
     3 C(13)  Bbb    -0.1060   -14.218    -5.073    -4.743 -0.0232  0.4182  0.9081
              Bcc     0.2161    29.004    10.349     9.675  0.9974  0.0710 -0.0073
 
              Baa    -0.0933   -12.518    -4.467    -4.176  0.9998  0.0163 -0.0134
     4 C(13)  Bbb     0.0407     5.467     1.951     1.824  0.0203 -0.5625  0.8265
              Bcc     0.0525     7.051     2.516     2.352 -0.0059  0.8266  0.5627
 
              Baa    -0.0114    -6.072    -2.167    -2.025 -0.0699  0.9570 -0.2817
     5 H(1)   Bbb    -0.0054    -2.876    -1.026    -0.959  0.9964  0.0806  0.0266
              Bcc     0.0168     8.948     3.193     2.985 -0.0481  0.2788  0.9591
 
              Baa    -0.6926   -26.713    -9.532    -8.910  0.0178  0.9998 -0.0000
     6 N(14)  Bbb    -0.6834   -26.359    -9.405    -8.792  0.0000  0.0000  1.0000
              Bcc     1.3761    53.072    18.937    17.703  0.9998 -0.0178  0.0000
 
              Baa    -0.0933   -12.518    -4.467    -4.176  0.9998  0.0163  0.0134
     7 C(13)  Bbb     0.0407     5.467     1.951     1.824 -0.0203  0.5625  0.8265
              Bcc     0.0525     7.051     2.516     2.352 -0.0059  0.8266 -0.5627
 
              Baa    -0.0114    -6.072    -2.167    -2.025 -0.0699  0.9570  0.2817
     8 H(1)   Bbb    -0.0054    -2.876    -1.026    -0.959  0.9964  0.0806 -0.0266
              Bcc     0.0168     8.948     3.193     2.985  0.0481 -0.2788  0.9591
 
              Baa    -0.2027    -7.819    -2.790    -2.608  0.0000  0.0000  1.0000
     9 N(14)  Bbb    -0.1914    -7.380    -2.634    -2.462  0.1096  0.9940 -0.0000
              Bcc     0.3941    15.200     5.424     5.070  0.9940 -0.1096  0.0000
 
              Baa    -0.0039    -2.077    -0.741    -0.693  0.9999  0.0076 -0.0134
    10 H(1)   Bbb    -0.0014    -0.770    -0.275    -0.257  0.0154 -0.5165  0.8562
              Bcc     0.0053     2.846     1.016     0.949  0.0004  0.8563  0.5165
 
              Baa    -0.0206    -2.764    -0.986    -0.922 -0.0048  0.8372 -0.5469
    11 C(13)  Bbb     0.0069     0.931     0.332     0.311 -0.2603  0.5270  0.8091
              Bcc     0.0137     1.833     0.654     0.611  0.9655  0.1462  0.2154
 
              Baa    -0.0206    -2.764    -0.986    -0.922 -0.0048  0.8372  0.5469
    12 C(13)  Bbb     0.0069     0.931     0.332     0.311  0.2603 -0.5270  0.8091
              Bcc     0.0137     1.833     0.654     0.611  0.9655  0.1462 -0.2154
 
              Baa    -0.0039    -2.077    -0.741    -0.693  0.9999  0.0076  0.0134
    13 H(1)   Bbb    -0.0014    -0.770    -0.275    -0.257 -0.0154  0.5165  0.8562
              Bcc     0.0053     2.846     1.016     0.949  0.0004  0.8563 -0.5165
 
              Baa    -0.0091    -4.858    -1.734    -1.620  0.8934 -0.1533  0.4223
    14 H(1)   Bbb    -0.0040    -2.140    -0.764    -0.714  0.2067  0.9749 -0.0833
              Bcc     0.0131     6.998     2.497     2.334 -0.3990  0.1617  0.9026
 
              Baa    -0.0087    -4.651    -1.660    -1.552  0.7632  0.3051 -0.5697
    15 H(1)   Bbb    -0.0043    -2.278    -0.813    -0.760 -0.3795  0.9251 -0.0130
              Bcc     0.0130     6.930     2.473     2.312  0.5230  0.2262  0.8218
 
              Baa    -0.0068    -3.634    -1.297    -1.212  0.6328 -0.3517  0.6898
    16 H(1)   Bbb    -0.0064    -3.441    -1.228    -1.148  0.7743  0.2972 -0.5587
              Bcc     0.0133     7.076     2.525     2.360 -0.0085  0.8877  0.4604
 
              Baa    -0.0091    -4.858    -1.734    -1.620  0.8934 -0.1533 -0.4223
    17 H(1)   Bbb    -0.0040    -2.140    -0.764    -0.714  0.2067  0.9749  0.0833
              Bcc     0.0131     6.998     2.497     2.334  0.3990 -0.1617  0.9026
 
              Baa    -0.0087    -4.651    -1.660    -1.552  0.7632  0.3051  0.5697
    18 H(1)   Bbb    -0.0043    -2.278    -0.813    -0.760 -0.3795  0.9251  0.0130
              Bcc     0.0130     6.930     2.473     2.312 -0.5230 -0.2262  0.8218
 
              Baa    -0.0068    -3.634    -1.297    -1.212 -0.6328  0.3517  0.6898
    19 H(1)   Bbb    -0.0064    -3.441    -1.228    -1.148  0.7743  0.2972  0.5587
              Bcc     0.0133     7.076     2.525     2.360 -0.0085  0.8877 -0.4604
 

 ---------------------------------------------------------------------------------

 No NMR shielding tensors so no spin-rotation constants.
 Leave Link  601 at Thu Jan 22 16:28:54 2026, MaxMem=  1610612736 cpu:               1.4 elap:               0.7
 (Enter /leonardo/prod/opt/applications/g16/c02/binary/g16/l701.exe)
 ... and contract with generalized density number  0.
 Compute integral first derivatives.
 R6Disp: Adding Grimme-D3 dispersion energy 1st derivatives to the gradient.
   2 Symmetry operations used in ECPInt.
 ECPInt:  NShTT=    3570 NPrTT=   12708 LenC2=    3535 LenP2D=   10046.
 LDataN:  DoStor=T MaxTD1= 5 Len=  102
 D1PCM: PCM CHGder 1st derivatives, ID1Alg=3 FixD1E=F DoIter=F DoCFld=F I1PDM=0.
 GePol: Maximum number of non-zero 1st derivatives   =     194
 Leave Link  701 at Thu Jan 22 16:28:55 2026, MaxMem=  1610612736 cpu:               6.4 elap:               0.8
 (Enter /leonardo/prod/opt/applications/g16/c02/binary/g16/l702.exe)
 L702 exits ... SP integral derivatives will be done elsewhere.
 Leave Link  702 at Thu Jan 22 16:28:55 2026, MaxMem=  1610612736 cpu:               0.1 elap:               0.1
 (Enter /leonardo/prod/opt/applications/g16/c02/binary/g16/l703.exe)
 Integral derivatives from FoFJK, PRISM(SPDF).
 Compute integral first derivatives, UseDBF=F ICtDFT=           0.
 Calling FoFJK, ICntrl=      2127 FMM=F ISym2X=1 I1Cent= 0 IOpClX= 1 NMat=1 NMatS=1 NMatT=0.
 FoFJK:  IHMeth= 1 ICntrl=    2127 DoSepK=F KAlg= 0 I1Cent=           0 FoldK=F
 IRaf=         0 NMat=       1 IRICut=       1 DoRegI=T DoRafI=F ISym2E= 1 IDoP0=0 IntGTp=1.
 FoFCou: FMM=F IPFlag=           0 FMFlag=      100000 FMFlg1=         800
         NFxFlg=           0 DoJE=F BraDBF=F KetDBF=F FulRan=T
         wScrn=  0.000000 ICntrl=      2127 IOpCl=  1 I1Cent=           0 NGrid=           0
         NMat0=    1 NMatS0=      1 NMatT0=    0 NMatD0=    1 NMtDS0=    0 NMtDT0=    0
 Petite list used in FoFCou.
 Leave Link  703 at Thu Jan 22 16:28:56 2026, MaxMem=  1610612736 cpu:              10.0 elap:               1.0
 (Enter /leonardo/prod/opt/applications/g16/c02/binary/g16/l716.exe)
 Dipole        = 1.98996563D-02 2.86915073D+00-1.77635684D-15
[...]
    17  H    0.000006   0.000141  -0.000236   0.000182   0.519208  -0.016948
    18  H    0.000006  -0.000236   0.000142   0.000180  -0.016948   0.519193
    19  H   -0.000000   0.000182   0.000180   0.003987  -0.013566  -0.013566
              19
     1  C    0.005854
     2  C   -0.000130
     3  C    0.000456
     4  C    0.000009
     5  H   -0.000003
     6  N   -0.016770
     7  C   -0.000044
     8  H    0.000227
     9  N    0.000001
    10  H   -0.000000
    11  C   -0.007708
    12  C    0.404372
    13  H   -0.000000
    14  H    0.000182
    15  H    0.000180
    16  H    0.003987
    17  H   -0.013566
    18  H   -0.013566
    19  H    0.519880
          Atomic-Atomic Spin Densities.
               1          2          3          4          5          6
     1  C   -0.140343   0.021718   0.021718   0.002571   0.000192  -0.056515
     2  C    0.021718   0.250915   0.009588  -0.009644   0.001360  -0.015456
     3  C    0.021718   0.009588   0.250915  -0.001402  -0.000049  -0.015456
     4  C    0.002571  -0.009644  -0.001402  -0.117504   0.000027   0.000146
     5  H    0.000192   0.001360  -0.000049   0.000027  -0.012680   0.000058
     6  N   -0.056515  -0.015456  -0.015456   0.000146   0.000058   0.775377
     7  C    0.002571  -0.001402  -0.009644   0.003911   0.000003   0.000146
     8  H    0.000192  -0.000049   0.001360   0.000003  -0.000001   0.000058
     9  N   -0.000953  -0.008086  -0.008086   0.004770  -0.000109   0.000052
    10  H   -0.000046  -0.000125   0.000020   0.000062  -0.000018  -0.000000
    11  C    0.003602   0.001420  -0.000019  -0.000026  -0.000212  -0.026756
    12  C    0.003602  -0.000019   0.001420   0.000005  -0.000010  -0.026756
    13  H   -0.000046   0.000020  -0.000125  -0.000073  -0.000001  -0.000000
    14  H    0.001174   0.001944   0.000137  -0.000011   0.000036  -0.010275
    15  H    0.001179   0.001947   0.000138  -0.000011   0.000038  -0.010290
    16  H   -0.000109   0.000014  -0.000001  -0.000000  -0.000006  -0.000010
    17  H    0.001174   0.000137   0.001944  -0.000003   0.000000  -0.010275
    18  H    0.001179   0.000138   0.001947  -0.000003   0.000000  -0.010290
    19  H   -0.000109  -0.000001   0.000014  -0.000000   0.000000  -0.000010
               7          8          9         10         11         12
     1  C    0.002571   0.000192  -0.000953  -0.000046   0.003602   0.003602
     2  C   -0.001402  -0.000049  -0.008086  -0.000125   0.001420  -0.000019
     3  C   -0.009644   0.001360  -0.008086   0.000020  -0.000019   0.001420
     4  C    0.003911   0.000003   0.004770   0.000062  -0.000026   0.000005
     5  H    0.000003  -0.000001  -0.000109  -0.000018  -0.000212  -0.000010
     6  N    0.000146   0.000058   0.000052  -0.000000  -0.026756  -0.026756
     7  C   -0.117504   0.000027   0.004770  -0.000073   0.000005  -0.000026
     8  H    0.000027  -0.012680  -0.000109  -0.000001  -0.000010  -0.000212
     9  N    0.004770  -0.000109   0.220088   0.000157  -0.000000  -0.000000
    10  H   -0.000073  -0.000001   0.000157   0.003937   0.000000  -0.000000
    11  C    0.000005  -0.000010  -0.000000   0.000000  -0.035825   0.001931
    12  C   -0.000026  -0.000212  -0.000000  -0.000000   0.001931  -0.035825
    13  H    0.000062  -0.000018   0.000157  -0.000004  -0.000000   0.000000
    14  H   -0.000003   0.000000  -0.000005  -0.000000   0.008511   0.000139
    15  H   -0.000003   0.000000  -0.000005  -0.000000   0.008525   0.000139
    16  H   -0.000000   0.000000  -0.000000  -0.000000   0.000640   0.000196
    17  H   -0.000011   0.000036  -0.000005  -0.000000   0.000139   0.008511
    18  H   -0.000011   0.000038  -0.000005  -0.000000   0.000139   0.008525
    19  H   -0.000000  -0.000006  -0.000000   0.000000   0.000196   0.000640
              13         14         15         16         17         18
     1  C   -0.000046   0.001174   0.001179  -0.000109   0.001174   0.001179
     2  C    0.000020   0.001944   0.001947   0.000014   0.000137   0.000138
     3  C   -0.000125   0.000137   0.000138  -0.000001   0.001944   0.001947
     4  C   -0.000073  -0.000011  -0.000011  -0.000000  -0.000003  -0.000003
     5  H   -0.000001   0.000036   0.000038  -0.000006   0.000000   0.000000
     6  N   -0.000000  -0.010275  -0.010290  -0.000010  -0.010275  -0.010290
     7  C    0.000062  -0.000003  -0.000003  -0.000000  -0.000011  -0.000011
     8  H   -0.000018   0.000000   0.000000   0.000000   0.000036   0.000038
     9  N    0.000157  -0.000005  -0.000005  -0.000000  -0.000005  -0.000005
    10  H   -0.000004  -0.000000  -0.000000  -0.000000  -0.000000  -0.000000
    11  C   -0.000000   0.008511   0.008525   0.000640   0.000139   0.000139
    12  C    0.000000   0.000139   0.000139   0.000196   0.008511   0.008525
    13  H    0.003937  -0.000000  -0.000000   0.000000  -0.000000  -0.000000
    14  H   -0.000000   0.042653  -0.008336  -0.000082   0.000402  -0.000179
    15  H   -0.000000  -0.008336   0.042693  -0.000089  -0.000179   0.000403
    16  H    0.000000  -0.000082  -0.000089   0.000618  -0.000001  -0.000001
    17  H   -0.000000   0.000402  -0.000179  -0.000001   0.042653  -0.008336
    18  H   -0.000000  -0.000179   0.000403  -0.000001  -0.008336   0.042693
    19  H   -0.000000  -0.000001  -0.000001  -0.000031  -0.000082  -0.000089
              19
     1  C   -0.000109
     2  C   -0.000001
     3  C    0.000014
     4  C   -0.000000
     5  H    0.000000
     6  N   -0.000010
     7  C   -0.000000
     8  H   -0.000006
     9  N   -0.000000
    10  H    0.000000
    11  C    0.000196
    12  C    0.000640
    13  H   -0.000000
    14  H   -0.000001
    15  H   -0.000001
    16  H   -0.000031
    17  H   -0.000082
    18  H   -0.000089
    19  H    0.000618
 Mulliken charges and spin densities:
               1          2
     1  C    0.160784  -0.137245
     2  C   -0.017602   0.254421
     3  C   -0.017602   0.254421
     4  C    0.062913  -0.117181
     5  H    0.082127  -0.011371
     6  N   -0.251973   0.593750
     7  C    0.062913  -0.117181
     8  H    0.082127  -0.011371
     9  N   -0.159400   0.212629
    10  H    0.081151   0.003908
    11  C    0.033212  -0.037740
    12  C    0.033212  -0.037740
    13  H    0.081151   0.003908
    14  H    0.133418   0.036108
    15  H    0.133437   0.036148
    16  H    0.116638   0.001139
    17  H    0.133418   0.036108
    18  H    0.133437   0.036148
    19  H    0.116638   0.001139
 Sum of Mulliken charges =   1.00000   1.00000
 Mulliken charges and spin densities with hydrogens summed into heavy atoms:
               1          2
     1  C    0.160784  -0.137245
     2  C    0.064525   0.243050
     3  C    0.064525   0.243050
     4  C    0.144064  -0.113272
     6  N   -0.251973   0.593750
     7  C    0.144064  -0.113272
     9  N   -0.159400   0.212629
    11  C    0.416705   0.035655
    12  C    0.416705   0.035655
 Electronic spatial extent (au):  <R**2>=           1223.8327
 Charge=              1.0000 electrons
 Dipole moment (field-independent basis, Debye):
    X=             -0.0001    Y=              7.4140    Z=              0.0000  Tot=              7.4140
 Quadrupole moment (field-independent basis, Debye-Ang):
   XX=            -52.5036   YY=            -36.9712   ZZ=            -34.4594
   XY=              0.0017   XZ=             -0.0000   YZ=             -0.0000
 Traceless Quadrupole moment (field-independent basis, Debye-Ang):
   XX=            -11.1922   YY=              4.3402   ZZ=              6.8520
   XY=              0.0017   XZ=             -0.0000   YZ=             -0.0000
 Octapole moment (field-independent basis, Debye-Ang**2):
  XXX=              0.0042  YYY=             79.1830  ZZZ=              0.0000  XYY=             -0.0014
  XXY=              7.2460  XXZ=             -0.0000  XZZ=             -0.0014  YZZ=              4.5572
  YYZ=             -0.0000  XYZ=             -0.0000
 Hexadecapole moment (field-independent basis, Debye-Ang**3):
 XXXX=            -63.6898 YYYY=          -1033.5996 ZZZZ=           -367.3305 XXXY=              0.0170
 XXXZ=             -0.0000 YYYX=              0.0179 YYYZ=             -0.0000 ZZZX=             -0.0000
 ZZZY=              0.0000 XXYY=           -195.2152 XXZZ=            -80.7374 YYZZ=           -188.8609
 XXYZ=             -0.0000 YYXZ=             -0.0000 ZZXY=              0.0010
 N-N= 4.327462403441D+02 E-N=-1.736267489702D+03  KE= 3.775217504821D+02
 Symmetry A'   KE= 2.547989512770D+02
 Symmetry A"   KE= 1.227227992051D+02
 Symmetry A'   SP= 1.000000000000D+00
 Symmetry A"   SP=-1.100000621222D-14
                          Isotropic Fermi Contact Couplings
        Atom                 a.u.       MegaHertz       Gauss      10(-4) cm-1
     1  C(13)             -0.05283     -59.39126     -21.19228     -19.81079
     2  C(13)              0.03451      38.79973      13.84471      12.94220
     3  C(13)              0.03451      38.79973      13.84471      12.94220
     4  C(13)             -0.03066     -34.46601     -12.29833     -11.49662
     5  H(1)              -0.00366     -16.34609      -5.83269      -5.45247
     6  N(14)              0.18183      58.75164      20.96405      19.59744
     7  C(13)             -0.03066     -34.46601     -12.29833     -11.49662
     8  H(1)              -0.00366     -16.34609      -5.83269      -5.45247
     9  N(14)              0.04495      14.52475       5.18279       4.84494
    10  H(1)               0.00112       4.98406       1.77844       1.66250
    11  C(13)             -0.02513     -28.25357     -10.08158      -9.42438
    12  C(13)             -0.02513     -28.25357     -10.08158      -9.42438
    13  H(1)               0.00112       4.98406       1.77844       1.66250
    14  H(1)               0.01597      71.36481      25.46474      23.80474
    15  H(1)               0.01598      71.44356      25.49284      23.83101
    16  H(1)               0.00032       1.44720       0.51640       0.48273
    17  H(1)               0.01597      71.36481      25.46474      23.80474
    18  H(1)               0.01598      71.44356      25.49284      23.83101
    19  H(1)               0.00032       1.44720       0.51640       0.48273
 --------------------------------------------------------
       Center         ----  Spin Dipole Couplings  ----
                      3XX-RR        3YY-RR        3ZZ-RR
 --------------------------------------------------------
     1   Atom       -0.089381      0.061015      0.028366
     2   Atom        0.218924     -0.110751     -0.108174
     3   Atom        0.218924     -0.110751     -0.108174
     4   Atom       -0.097581      0.051126      0.046456
     5   Atom       -0.005511     -0.008852      0.014363
     6   Atom        1.390169     -0.700908     -0.689261
     7   Atom       -0.097581      0.051126      0.046456
     8   Atom       -0.005511     -0.008852      0.014363
     9   Atom        0.411924     -0.199393     -0.212531
    10   Atom       -0.003815      0.003920     -0.000105
    11   Atom        0.013155     -0.011108     -0.002048
    12   Atom        0.013155     -0.011108     -0.002048
    13   Atom       -0.003815      0.003920     -0.000105
    14   Atom       -0.003893     -0.003738      0.007631
    15   Atom       -0.003878     -0.003739      0.007617
    16   Atom       -0.006455      0.008893     -0.002438
    17   Atom       -0.003893     -0.003738      0.007631
    18   Atom       -0.003878     -0.003739      0.007617
    19   Atom       -0.006455      0.008893     -0.002438
 --------------------------------------------------------
                        XY            XZ            YZ
 --------------------------------------------------------
     1   Atom       -0.000006      0.000000      0.000000
     2   Atom        0.000079      0.000014     -0.001864
     3   Atom        0.000079     -0.000014      0.001864
     4   Atom       -0.000032     -0.000006      0.006023
     5   Atom       -0.000000     -0.000006      0.007755
     6   Atom       -0.000377      0.000000      0.000000
     7   Atom       -0.000032      0.000006     -0.006023
     8   Atom       -0.000000      0.000006     -0.007755
     9   Atom        0.000145      0.000000     -0.000000
    10   Atom       -0.000001     -0.000001      0.003181
    11   Atom       -0.000000      0.000004      0.011005
    12   Atom       -0.000000     -0.000004     -0.011005
    13   Atom       -0.000001      0.000001     -0.003181
    14   Atom       -0.000805     -0.008656      0.003640
    15   Atom        0.000808      0.008663      0.003644
    16   Atom        0.000001     -0.000001      0.008567
    17   Atom       -0.000805      0.008656     -0.003640
    18   Atom        0.000808     -0.008663     -0.003644
    19   Atom        0.000001      0.000001     -0.008567
 --------------------------------------------------------


 ---------------------------------------------------------------------------------
              Anisotropic Spin Dipole Couplings in Principal Axis System
 ---------------------------------------------------------------------------------

       Atom             a.u.   MegaHertz   Gauss  10(-4) cm-1        Axes

              Baa    -0.0894   -11.994    -4.280    -4.001  1.0000  0.0000 -0.0000
     1 C(13)  Bbb     0.0284     3.806     1.358     1.270  0.0000 -0.0000  1.0000
              Bcc     0.0610     8.188     2.922     2.731 -0.0000  1.0000  0.0000
 
              Baa    -0.1117   -14.993    -5.350    -5.001 -0.0002  0.8856  0.4644
     2 C(13)  Bbb    -0.1072   -14.385    -5.133    -4.798  0.0001 -0.4644  0.8856
              Bcc     0.2189    29.378    10.483     9.799  1.0000  0.0002  0.0000
 
              Baa    -0.1117   -14.993    -5.350    -5.001 -0.0002  0.8856 -0.4644
     3 C(13)  Bbb    -0.1072   -14.385    -5.133    -4.798 -0.0001  0.4644  0.8856
              Bcc     0.2189    29.378    10.483     9.799  1.0000  0.0002 -0.0000
 
              Baa    -0.0976   -13.094    -4.672    -4.368  1.0000  0.0002  0.0000
     4 C(13)  Bbb     0.0423     5.680     2.027     1.895  0.0001 -0.5650  0.8251
              Bcc     0.0553     7.414     2.646     2.473 -0.0002  0.8251  0.5650
 
              Baa    -0.0112    -5.978    -2.133    -1.994 -0.0003  0.9569 -0.2903
     5 H(1)   Bbb    -0.0055    -2.940    -1.049    -0.981  1.0000  0.0004  0.0002
              Bcc     0.0167     8.918     3.182     2.975 -0.0003  0.2903  0.9569
 
              Baa    -0.7009   -27.032    -9.646    -9.017  0.0002  1.0000 -0.0000
     6 N(14)  Bbb    -0.6893   -26.583    -9.486    -8.867 -0.0000  0.0000  1.0000
              Bcc     1.3902    53.616    19.131    17.884  1.0000 -0.0002  0.0000
 
              Baa    -0.0976   -13.094    -4.672    -4.368  1.0000  0.0002 -0.0000
     7 C(13)  Bbb     0.0423     5.680     2.027     1.895 -0.0001  0.5650  0.8251
              Bcc     0.0553     7.414     2.646     2.473 -0.0002  0.8251 -0.5650
 
              Baa    -0.0112    -5.978    -2.133    -1.994 -0.0003  0.9569  0.2903
     8 H(1)   Bbb    -0.0055    -2.940    -1.049    -0.981  1.0000  0.0004 -0.0002
              Bcc     0.0167     8.918     3.182     2.975  0.0003 -0.2903  0.9569
 
              Baa    -0.2125    -8.197    -2.925    -2.734 -0.0000  0.0000  1.0000
     9 N(14)  Bbb    -0.1994    -7.690    -2.744    -2.565 -0.0002  1.0000 -0.0000
              Bcc     0.4119    15.887     5.669     5.299  1.0000  0.0002  0.0000
 
              Baa    -0.0038    -2.036    -0.726    -0.679  1.0000  0.0000  0.0003
    10 H(1)   Bbb    -0.0019    -0.990    -0.353    -0.330 -0.0003 -0.4824  0.8760
              Bcc     0.0057     3.026     1.080     1.009 -0.0002  0.8760  0.4824
 
              Baa    -0.0185    -2.480    -0.885    -0.827  0.0001  0.8309 -0.5565
    11 C(13)  Bbb     0.0053     0.714     0.255     0.238 -0.0004  0.5565  0.8309
              Bcc     0.0132     1.765     0.630     0.589  1.0000  0.0002  0.0004
 
              Baa    -0.0185    -2.480    -0.885    -0.827  0.0001  0.8309  0.5565
    12 C(13)  Bbb     0.0053     0.714     0.255     0.238  0.0004 -0.5565  0.8309
              Bcc     0.0132     1.765     0.630     0.589  1.0000  0.0002 -0.0004
 
              Baa    -0.0038    -2.036    -0.726    -0.679  1.0000  0.0000 -0.0003
    13 H(1)   Bbb    -0.0019    -0.990    -0.353    -0.330  0.0003  0.4824  0.8760
              Bcc     0.0057     3.026     1.080     1.009 -0.0002  0.8760 -0.4824
 
              Baa    -0.0088    -4.674    -1.668    -1.559  0.8407 -0.2229  0.4935
    14 H(1)   Bbb    -0.0043    -2.282    -0.814    -0.761  0.2967  0.9520 -0.0753
              Bcc     0.0130     6.956     2.482     2.320 -0.4530  0.2097  0.8665
 
              Baa    -0.0088    -4.673    -1.667    -1.559  0.8401  0.2236 -0.4942
    15 H(1)   Bbb    -0.0043    -2.283    -0.815    -0.762 -0.2975  0.9518 -0.0750
              Bcc     0.0130     6.956     2.482     2.320  0.4536  0.2100  0.8661
 
              Baa    -0.0070    -3.758    -1.341    -1.254  0.0016 -0.4735  0.8808
    16 H(1)   Bbb    -0.0065    -3.444    -1.229    -1.149  1.0000  0.0008 -0.0015
              Bcc     0.0135     7.202     2.570     2.402  0.0000  0.8808  0.4735
 
              Baa    -0.0088    -4.674    -1.668    -1.559  0.8407 -0.2229 -0.4935
    17 H(1)   Bbb    -0.0043    -2.282    -0.814    -0.761  0.2967  0.9520  0.0753
              Bcc     0.0130     6.956     2.482     2.320  0.4530 -0.2097  0.8665
 
              Baa    -0.0088    -4.673    -1.667    -1.559  0.8401  0.2236  0.4942
    18 H(1)   Bbb    -0.0043    -2.283    -0.815    -0.762 -0.2975  0.9518  0.0750
              Bcc     0.0130     6.956     2.482     2.320 -0.4536 -0.2100  0.8661
 
              Baa    -0.0070    -3.758    -1.341    -1.254 -0.0016  0.4735  0.8808
    19 H(1)   Bbb    -0.0065    -3.444    -1.229    -1.149  1.0000  0.0008  0.0015
              Bcc     0.0135     7.202     2.570     2.402  0.0000  0.8808 -0.4735
 

 ---------------------------------------------------------------------------------

 No NMR shielding tensors so no spin-rotation constants.
 Leave Link  601 at Thu Jan 22 16:31:09 2026, MaxMem=  1610612736 cpu:               0.9 elap:               0.2
 (Enter /leonardo/prod/opt/applications/g16/c02/binary/g16/l9999.exe)
 Unable to Open any file for archive entry.
 1\1\GINC-LRDN4915\FOpt\UM062X\def2SVP\C7H10N2(1+,2)\MORZA000\22-Jan-20
 26\0\\#p opt M062X def2SVP empiricaldispersion=GD3 SCRF(solvent=water)
 \\titolo\\1,2\C,0.0636964064,0.147857794,0.006828141\C,-0.0210856811,-
 0.545526297,1.2421165562\C,0.0262918219,-0.6141945969,-1.1897436368\C,
 -0.1354323038,-1.9272594447,1.2103016036\H,0.0009248448,-0.0295290591,
 2.1991596912\N,0.1778091881,1.5048781544,-0.0292668215\C,-0.0907247129
 ,-1.9920580109,-1.0845135282\H,0.0860991012,-0.1529794526,-2.172786288
 5\N,-0.1701175582,-2.6408350133,0.0810171395\H,-0.2021396591,-2.482798
 1417,2.1482993975\C,0.2155337382,2.2773424429,1.2046632968\C,0.2643763
 599,2.2065506201,-1.3024006053\H,-0.121486803,-2.59969528,-1.991565687
 4\H,-0.7097475769,2.1068473638,1.7725097925\H,1.0749147848,1.958399597
 1,1.8108502594\H,0.3089058811,3.336829721,0.9615521941\H,-0.6382912014
 ,2.0032794779,-1.8953051872\H,1.1463470295,1.854866686,-1.855726101\H,
 0.3493805644,3.2781662727,-1.1159902083\\Version=ES64L-G16RevC.02\Stat
 e=2-A'\HF=-381.5911385\S2=0.779023\S2-1=0.\S2A=0.750561\RMSD=4.895e-09
 \RMSF=2.173e-05\Dipole=0.2440985,2.9056232,-0.0772904\Quadrupole=-8.23
 49304,3.1482896,5.0866408,0.9567277,-0.2866952,0.0735885\PG=CS [SG(C1N
 2),X(C6H10)]\\@
 The archive entry for this job was punched.


      SCIENCE SANS CONSCIENCE N'EST QUE RUINE DE L'AME.

                                                  -- RABELAIS
 Job cpu time:       0 days  0 hours 17 minutes 27.8 seconds.
 Elapsed time:       0 days  0 hours  2 minutes  2.9 seconds.
 File lengths (MBytes):  RWF=     67 Int=      0 D2E=      0 Chk=      6 Scr=      1
 Normal termination of Gaussian 16 at Thu Jan 22 16:31:09 2026.
