 Set GAUSS_PDEF to "8".
 Entering Gaussian System, Link 0=g16
 Initial command:
 /leonardo/prod/opt/applications/g16/c02/binary/g16/l1.exe "/leonardo_scratch/large/userexternal/morza000/g16_32712406/Gau-3663748.inp" -scrdir="/leonardo_scratch/large/userexternal/morza000/g16_32712406/"
 Default is to use a total of   8 processors:
                                8 via shared-memory
                                1 via Linda
 Entering Link 1 = /leonardo/prod/opt/applications/g16/c02/binary/g16/l1.exe PID=   3663750.
  
 Copyright (c) 1988-2021, Gaussian, Inc.  All Rights Reserved.
  
 This is part of the Gaussian(R) 16 program.  It is based on
 the Gaussian(R) 09 system (copyright 2009, Gaussian, Inc.),
 the Gaussian(R) 03 system (copyright 2003, Gaussian, Inc.),
 the Gaussian(R) 98 system (copyright 1998, Gaussian, Inc.),
 the Gaussian(R) 94 system (copyright 1995, Gaussian, Inc.),
 the Gaussian 92(TM) system (copyright 1992, Gaussian, Inc.),
 the Gaussian 90(TM) system (copyright 1990, Gaussian, Inc.),
 the Gaussian 88(TM) system (copyright 1988, Gaussian, Inc.),
 the Gaussian 86(TM) system (copyright 1986, Carnegie Mellon
 University), and the Gaussian 82(TM) system (copyright 1983,
 Carnegie Mellon University). Gaussian is a federally registered
 trademark of Gaussian, Inc.
  
 This software contains proprietary and confidential information,
 including trade secrets, belonging to Gaussian, Inc.
  
 This software is provided under written license and may be
 used, copied, transmitted, or stored only in accord with that
 written license.
  
 The following legend is applicable only to US Government
 contracts under FAR:
  
                    RESTRICTED RIGHTS LEGEND
  
 Use, reproduction and disclosure by the US Government is
 subject to restrictions as set forth in subparagraphs (a)
 and (c) of the Commercial Computer Software - Restricted
 Rights clause in FAR 52.227-19.
  
 Gaussian, Inc.
 340 Quinnipiac St., Bldg. 40, Wallingford CT 06492
  
  
 ---------------------------------------------------------------
 Warning -- This program may not be used in any manner that
 competes with the business of Gaussian, Inc. or will provide
 assistance to any competitor of Gaussian, Inc.  The licensee
 of this program is prohibited from giving any competitor of
 Gaussian, Inc. access to this program.  By using this program,
 the user acknowledges that Gaussian, Inc. is engaged in the
 business of creating and licensing software in the field of
 computational chemistry and represents and warrants to the
 licensee that it is not a competitor of Gaussian, Inc. and that
 it will not use this program in any manner prohibited above.
 ---------------------------------------------------------------
  

 Cite this work as:
 Gaussian 16, Revision C.02,
 M. J. Frisch, G. W. Trucks, H. B. Schlegel, G. E. Scuseria, 
 M. A. Robb, J. R. Cheeseman, G. Scalmani, V. Barone, 
 G. A. Petersson, H. Nakatsuji, X. Li, M. Caricato, A. V. Marenich, 
 J. Bloino, B. G. Janesko, R. Gomperts, B. Mennucci, H. P. Hratchian, 
 J. V. Ortiz, A. F. Izmaylov, J. L. Sonnenberg, D. Williams-Young, 
 F. Ding, F. Lipparini, F. Egidi, J. Goings, B. Peng, A. Petrone, 
 T. Henderson, D. Ranasinghe, V. G. Zakrzewski, J. Gao, N. Rega, 
 G. Zheng, W. Liang, M. Hada, M. Ehara, K. Toyota, R. Fukuda, 
 J. Hasegawa, M. Ishida, T. Nakajima, Y. Honda, O. Kitao, H. Nakai, 
 T. Vreven, K. Throssell, J. A. Montgomery, Jr., J. E. Peralta, 
 F. Ogliaro, M. J. Bearpark, J. J. Heyd, E. N. Brothers, K. N. Kudin, 
 V. N. Staroverov, T. A. Keith, R. Kobayashi, J. Normand, 
 K. Raghavachari, A. P. Rendell, J. C. Burant, S. S. Iyengar, 
 J. Tomasi, M. Cossi, J. M. Millam, M. Klene, C. Adamo, R. Cammi, 
 J. W. Ochterski, R. L. Martin, K. Morokuma, O. Farkas, 
 J. B. Foresman, and D. J. Fox, Gaussian, Inc., Wallingford CT, 2019.
 
 ******************************************
 Gaussian 16:  ES64L-G16RevC.02  7-Dec-2021
                22-Jan-2026 
 ******************************************
 %nprocshared=12
 Will use up to   12 processors via shared memory.
 %mem=12GB
 %chk=optdft.chk
 ----------------------------------------------------------------
 #p opt M062X def2SVP empiricaldispersion=GD3 SCRF(solvent=water)
 ----------------------------------------------------------------
 1/18=20,19=15,26=3,38=1/1,3;
 2/9=110,12=2,17=6,18=5,40=1/2;
 3/5=43,7=101,11=2,25=1,30=1,70=2201,71=1,72=1,74=-55,124=31/1,2,3;
 4//1;
 5/5=2,38=5,53=1/2;
 6/7=2,8=2,9=2,10=2,28=1/1;
 7//1,2,3,16;
 1/18=20,19=15,26=3/3(2);
 2/9=110/2;
 99//99;
 2/9=110/2;
 3/5=43,7=101,11=2,25=1,30=1,70=2205,71=1,72=1,74=-55,124=31/1,2,3;
 4/5=5,16=3,69=1/1;
 5/5=2,38=5,53=1/2;
 7//1,2,3,16;
 1/18=20,19=15,26=3/3(-5);
 2/9=110/2;
 6/7=2,8=2,9=2,10=2,19=2,28=1/1;
 99/9=1/99;
 Leave Link    1 at Thu Jan 22 16:28:36 2026, MaxMem=  1610612736 cpu:               0.2 elap:               0.5
 (Enter /leonardo/prod/opt/applications/g16/c02/binary/g16/l101.exe)
 ------
 titolo
 ------
 Symbolic Z-matrix:
 Charge =  1 Multiplicity = 2
 C                     0.05843   0.14584   0.00779 
 C                     0.0312   -0.56138   1.23134 
 C                    -0.05764  -0.61488  -1.17786 
 C                    -0.1042   -1.93548   1.2041 
 H                     0.15308  -0.0664    2.17861 
 N                     0.19276   1.49365  -0.0278 
 C                    -0.19471  -1.98564  -1.08001 
 H                    -0.08434  -0.15482  -2.14986 
 N                    -0.21679  -2.61563   0.0791 
 H                    -0.12109  -2.51484   2.11536 
 C                     0.00426   2.2916    1.13915 
 C                     0.53056   2.17403  -1.23516 
 H                    -0.29642  -2.60232  -1.96072 
 H                     0.92789   2.34939   1.72575 
 H                    -0.26039   3.30613   0.84739 
 H                    -0.77858   1.88532   1.77716 
 H                    -0.36198   2.35609  -1.8439 
 H                     1.23543   1.59769  -1.83237 
 H                     0.96779   3.14179  -0.99808 
 
 ITRead=  0  0  0  0  0  0  0  0  0  0  0  0  0  0  0  0  0  0  0
 MicOpt= -1 -1 -1 -1 -1 -1 -1 -1 -1 -1 -1 -1 -1 -1 -1 -1 -1 -1 -1
 NAtoms=     19 NQM=       19 NQMF=       0 NMMI=      0 NMMIF=      0
                NMic=       0 NMicF=      0.
                    Isotopes and Nuclear Properties:
 (Nuclear quadrupole moments (NQMom) in fm**2, nuclear magnetic moments (NMagM)
  in nuclear magnetons)

  Atom         1           2           3           4           5           6           7           8           9          10
 IAtWgt=          12          12          12          12           1          14          12           1          14           1
 AtmWgt=  12.0000000  12.0000000  12.0000000  12.0000000   1.0078250  14.0030740  12.0000000   1.0078250  14.0030740   1.0078250
 NucSpn=           0           0           0           0           1           2           0           1           2           1
 AtZEff=  -0.0000000  -0.0000000  -0.0000000  -0.0000000  -0.0000000  -0.0000000  -0.0000000  -0.0000000  -0.0000000  -0.0000000
 NQMom=    0.0000000   0.0000000   0.0000000   0.0000000   0.0000000   2.0440000   0.0000000   0.0000000   2.0440000   0.0000000
 NMagM=    0.0000000   0.0000000   0.0000000   0.0000000   2.7928460   0.4037610   0.0000000   2.7928460   0.4037610   2.7928460
 AtZNuc=   6.0000000   6.0000000   6.0000000   6.0000000   1.0000000   7.0000000   6.0000000   1.0000000   7.0000000   1.0000000

  Atom        11          12          13          14          15          16          17          18          19
 IAtWgt=          12          12           1           1           1           1           1           1           1
 AtmWgt=  12.0000000  12.0000000   1.0078250   1.0078250   1.0078250   1.0078250   1.0078250   1.0078250   1.0078250
 NucSpn=           0           0           1           1           1           1           1           1           1
 AtZEff=  -0.0000000  -0.0000000  -0.0000000  -0.0000000  -0.0000000  -0.0000000  -0.0000000  -0.0000000  -0.0000000
 NQMom=    0.0000000   0.0000000   0.0000000   0.0000000   0.0000000   0.0000000   0.0000000   0.0000000   0.0000000
 NMagM=    0.0000000   0.0000000   2.7928460   2.7928460   2.7928460   2.7928460   2.7928460   2.7928460   2.7928460
 AtZNuc=   6.0000000   6.0000000   1.0000000   1.0000000   1.0000000   1.0000000   1.0000000   1.0000000   1.0000000
 Leave Link  101 at Thu Jan 22 16:28:36 2026, MaxMem=  1610612736 cpu:               0.4 elap:               0.5
 (Enter /leonardo/prod/opt/applications/g16/c02/binary/g16/l103.exe)

 GradGradGradGradGradGradGradGradGradGradGradGradGradGradGradGradGradGrad
 Berny optimization.
 Initialization pass.
                           ----------------------------
                           !    Initial Parameters    !
                           ! (Angstroms and Degrees)  !
 --------------------------                            --------------------------
 ! Name  Definition              Value          Derivative Info.                !
 --------------------------------------------------------------------------------
 ! R1    R(1,2)                  1.4135         estimate D2E/DX2                !
 ! R2    R(1,3)                  1.4135         estimate D2E/DX2                !
 ! R3    R(1,6)                  1.355          estimate D2E/DX2                !
 ! R4    R(2,4)                  1.381          estimate D2E/DX2                !
 ! R5    R(2,5)                  1.0757         estimate D2E/DX2                !
 ! R6    R(3,7)                  1.3811         estimate D2E/DX2                !
 ! R7    R(3,8)                  1.0757         estimate D2E/DX2                !
 ! R8    R(4,9)                  1.3194         estimate D2E/DX2                !
 ! R9    R(4,10)                 1.08           estimate D2E/DX2                !
 ! R10   R(6,11)                 1.4262         estimate D2E/DX2                !
 ! R11   R(6,12)                 1.4264         estimate D2E/DX2                !
 ! R12   R(7,9)                  1.3194         estimate D2E/DX2                !
 ! R13   R(7,13)                 1.08           estimate D2E/DX2                !
 ! R14   R(11,14)                1.0957         estimate D2E/DX2                !
 ! R15   R(11,15)                1.0883         estimate D2E/DX2                !
 ! R16   R(11,16)                1.0886         estimate D2E/DX2                !
 ! R17   R(12,17)                1.0956         estimate D2E/DX2                !
 ! R18   R(12,18)                1.0889         estimate D2E/DX2                !
 ! R19   R(12,19)                1.0881         estimate D2E/DX2                !
 ! A1    A(2,1,3)              117.0803         estimate D2E/DX2                !
 ! A2    A(2,1,6)              121.489          estimate D2E/DX2                !
 ! A3    A(3,1,6)              121.4306         estimate D2E/DX2                !
 ! A4    A(1,2,4)              118.8576         estimate D2E/DX2                !
 ! A5    A(1,2,5)              121.9953         estimate D2E/DX2                !
 ! A6    A(4,2,5)              119.0985         estimate D2E/DX2                !
 ! A7    A(1,3,7)              118.8743         estimate D2E/DX2                !
 ! A8    A(1,3,8)              121.9922         estimate D2E/DX2                !
 ! A9    A(7,3,8)              119.0814         estimate D2E/DX2                !
 ! A10   A(2,4,9)              122.5536         estimate D2E/DX2                !
 ! A11   A(2,4,10)             121.2419         estimate D2E/DX2                !
 ! A12   A(9,4,10)             116.2044         estimate D2E/DX2                !
 ! A13   A(1,6,11)             121.4635         estimate D2E/DX2                !
 ! A14   A(1,6,12)             121.3433         estimate D2E/DX2                !
 ! A15   A(11,6,12)            117.1931         estimate D2E/DX2                !
 ! A16   A(3,7,9)              122.5349         estimate D2E/DX2                !
 ! A17   A(3,7,13)             121.2202         estimate D2E/DX2                !
 ! A18   A(9,7,13)             116.2439         estimate D2E/DX2                !
 ! A19   A(4,9,7)              120.0976         estimate D2E/DX2                !
 ! A20   A(6,11,14)            110.8635         estimate D2E/DX2                !
 ! A21   A(6,11,15)            109.5331         estimate D2E/DX2                !
 ! A22   A(6,11,16)            111.4569         estimate D2E/DX2                !
 ! A23   A(14,11,15)           107.4182         estimate D2E/DX2                !
 ! A24   A(14,11,16)           108.1869         estimate D2E/DX2                !
 ! A25   A(15,11,16)           109.2797         estimate D2E/DX2                !
 ! A26   A(6,12,17)            110.8931         estimate D2E/DX2                !
 ! A27   A(6,12,18)            111.4111         estimate D2E/DX2                !
 ! A28   A(6,12,19)            109.5704         estimate D2E/DX2                !
 ! A29   A(17,12,18)           108.0938         estimate D2E/DX2                !
 ! A30   A(17,12,19)           107.4949         estimate D2E/DX2                !
 ! A31   A(18,12,19)           109.2778         estimate D2E/DX2                !
 ! D1    D(3,1,2,4)              0.0434         estimate D2E/DX2                !
 ! D2    D(3,1,2,5)            177.4851         estimate D2E/DX2                !
 ! D3    D(6,1,2,4)           -179.8194         estimate D2E/DX2                !
 ! D4    D(6,1,2,5)             -2.3777         estimate D2E/DX2                !
 ! D5    D(2,1,3,7)              0.2551         estimate D2E/DX2                !
 ! D6    D(2,1,3,8)            177.6068         estimate D2E/DX2                !
 ! D7    D(6,1,3,7)           -179.882          estimate D2E/DX2                !
 ! D8    D(6,1,3,8)             -2.5303         estimate D2E/DX2                !
 ! D9    D(2,1,6,11)           -14.7113         estimate D2E/DX2                !
 ! D10   D(2,1,6,12)           165.2138         estimate D2E/DX2                !
 ! D11   D(3,1,6,11)           165.4319         estimate D2E/DX2                !
 ! D12   D(3,1,6,12)           -14.643          estimate D2E/DX2                !
 ! D13   D(1,2,4,9)             -0.3815         estimate D2E/DX2                !
 ! D14   D(1,2,4,10)           179.4733         estimate D2E/DX2                !
 ! D15   D(5,2,4,9)           -177.8985         estimate D2E/DX2                !
 ! D16   D(5,2,4,10)             1.9563         estimate D2E/DX2                !
 ! D17   D(1,3,7,9)             -0.2539         estimate D2E/DX2                !
 ! D18   D(1,3,7,13)           179.3703         estimate D2E/DX2                !
 ! D19   D(8,3,7,9)           -177.6839         estimate D2E/DX2                !
 ! D20   D(8,3,7,13)             1.9403         estimate D2E/DX2                !
 ! D21   D(2,4,9,7)              0.4017         estimate D2E/DX2                !
 ! D22   D(10,4,9,7)          -179.4598         estimate D2E/DX2                !
 ! D23   D(1,6,11,14)           85.4003         estimate D2E/DX2                !
 ! D24   D(1,6,11,15)         -156.2322         estimate D2E/DX2                !
 ! D25   D(1,6,11,16)          -35.1766         estimate D2E/DX2                !
 ! D26   D(12,6,11,14)         -94.5277         estimate D2E/DX2                !
 ! D27   D(12,6,11,15)          23.8398         estimate D2E/DX2                !
 ! D28   D(12,6,11,16)         144.8954         estimate D2E/DX2                !
 ! D29   D(1,6,12,17)           83.785          estimate D2E/DX2                !
 ! D30   D(1,6,12,18)          -36.6631         estimate D2E/DX2                !
 ! D31   D(1,6,12,19)         -157.7116         estimate D2E/DX2                !
 ! D32   D(11,6,12,17)         -96.2868         estimate D2E/DX2                !
 ! D33   D(11,6,12,18)         143.2651         estimate D2E/DX2                !
 ! D34   D(11,6,12,19)          22.2165         estimate D2E/DX2                !
 ! D35   D(3,7,9,4)             -0.0747         estimate D2E/DX2                !
 ! D36   D(13,7,9,4)          -179.7164         estimate D2E/DX2                !
 --------------------------------------------------------------------------------
 Trust Radius=3.00D-01 FncErr=1.00D-07 GrdErr=1.00D-06 EigMax=2.50D+02 EigMin=1.00D-04
 Number of steps in this run=     96 maximum allowed number of steps=    114.
 GradGradGradGradGradGradGradGradGradGradGradGradGradGradGradGradGradGrad

 Leave Link  103 at Thu Jan 22 16:28:37 2026, MaxMem=  1610612736 cpu:               0.1 elap:               0.1
 (Enter /leonardo/prod/opt/applications/g16/c02/binary/g16/l202.exe)
                          Input orientation:                          
 ---------------------------------------------------------------------
 Center     Atomic      Atomic             Coordinates (Angstroms)
 Number     Number       Type             X           Y           Z
 ---------------------------------------------------------------------
      1          6           0        0.058431    0.145840    0.007785
      2          6           0        0.031203   -0.561378    1.231341
      3          6           0       -0.057645   -0.614883   -1.177863
      4          6           0       -0.104195   -1.935485    1.204097
      5          1           0        0.153079   -0.066395    2.178609
      6          7           0        0.192762    1.493650   -0.027797
      7          6           0       -0.194707   -1.985637   -1.080009
      8          1           0       -0.084344   -0.154820   -2.149858
      9          7           0       -0.216791   -2.615631    0.079104
     10          1           0       -0.121091   -2.514838    2.115360
     11          6           0        0.004256    2.291602    1.139151
     12          6           0        0.530559    2.174029   -1.235159
     13          1           0       -0.296417   -2.602318   -1.960724
     14          1           0        0.927890    2.349387    1.725753
     15          1           0       -0.260387    3.306133    0.847390
     16          1           0       -0.778577    1.885321    1.777162
     17          1           0       -0.361984    2.356088   -1.843897
     18          1           0        1.235427    1.597686   -1.832368
     19          1           0        0.967786    3.141790   -0.998079
 ---------------------------------------------------------------------
                    Distance matrix (angstroms):
                    1          2          3          4          5
     1  C    0.000000
     2  C    1.413502   0.000000
     3  C    1.413484   2.411436   0.000000
     4  C    2.406143   1.381030   2.723948   0.000000
     5  H    2.183226   1.075722   3.407514   2.123525   0.000000
     6  N    1.354954   2.415506   2.414801   3.655778   2.702507
     7  C    2.406361   2.724314   1.381061   2.286449   3.797767
     8  H    2.183165   3.407514   1.075707   3.797391   4.335876
     9  N    2.776069   2.368355   2.368182   1.319427   3.323150
    10  H    3.399016   2.149580   3.802523   1.079971   2.464558
    11  C    2.426359   2.854596   3.717532   4.228976   2.581234
    12  C    2.425152   3.716911   2.850841   4.820890   4.100708
    13  H    3.399018   3.802900   2.149368   3.240017   4.875144
    14  H    2.926259   3.085619   4.264876   4.438181   2.577094
    15  H    3.285427   3.897446   4.417819   5.256063   3.649253
    16  H    2.618601   2.634388   3.937377   3.921958   2.199622
    17  H    2.913876   4.257146   3.059884   5.270135   4.723798
    18  H    2.622849   3.936753   2.644971   4.847474   4.475330
    19  H    3.288526   4.422776   3.898258   5.637148   4.587760
                    6          7          8          9         10
     6  N    0.000000
     7  C    3.655505   0.000000
     8  H    2.701367   2.123358   0.000000
     9  N    4.131023   1.319440   3.322861   0.000000
    10  H    4.556271   3.239731   4.874744   2.040994   0.000000
    11  C    1.426195   4.822762   4.100051   5.025285   4.906176
    12  C    1.426444   4.225269   2.576493   5.022615   5.799664
    13  H    4.555486   1.079953   2.463938   2.041425   4.080791
    14  H    2.085099   5.284407   4.723985   5.354732   4.991277
    15  H    2.063102   5.632230   4.581778   5.971554   5.959099
    16  H    2.086812   4.846509   4.479467   4.843302   4.461846
    17  H    2.085608   4.411585   2.544672   5.332636   6.281694
    18  H    2.086731   3.930844   2.216726   4.849196   5.859826
    19  H    2.063607   5.258194   3.647082   5.975905   6.548022
                   11         12         13         14         15
    11  C    0.000000
    12  C    2.434783   0.000000
    13  H    5.800869   4.901410   0.000000
    14  H    1.095692   2.992595   6.293522   0.000000
    15  H    1.088317   2.498853   6.541911   1.760365   0.000000
    16  H    1.088553   3.297160   5.860305   1.769188   1.775304
    17  H    3.006138   1.095600   4.960215   3.795553   2.855859
    18  H    3.290475   1.088883   4.472477   3.649638   3.512456
    19  H    2.493785   1.088088   5.959837   2.837033   2.222875
                   16         17         18         19
    16  H    0.000000
    17  H    3.675219   0.000000
    18  H    4.143386   1.768340   0.000000
    19  H    3.511475   1.760972   1.775366   0.000000
 Stoichiometry    C7H10N2(1+,2)
 Framework group  C1[X(C7H10N2)]
 Deg. of freedom    51
 Full point group                 C1      NOp   1
 Largest Abelian subgroup         C1      NOp   1
 Largest concise Abelian subgroup C1      NOp   1
                         Standard orientation:                         
 ---------------------------------------------------------------------
 Center     Atomic      Atomic             Coordinates (Angstroms)
 Number     Number       Type             X           Y           Z
 ---------------------------------------------------------------------
      1          6           0       -0.168898   -0.000794   -0.000989
      2          6           0        0.569066   -1.201376    0.108544
      3          6           0        0.568541    1.200336   -0.107788
      4          6           0        1.948654   -1.138320    0.106385
      5          1           0        0.089209   -2.155956    0.233815
      6          7           0       -1.523853   -0.000375   -0.000804
      7          6           0        1.948207    1.138336   -0.105007
      8          1           0        0.088304    2.154727   -0.232911
      9          7           0        2.607170   -0.000069   -0.001453
     10          1           0        2.550295   -2.030649    0.196453
     11          6           0       -2.268661   -1.199991   -0.201330
     12          6           0       -2.265441    1.201186    0.201788
     13          1           0        2.548855    2.031352   -0.194701
     14          1           0       -2.402344   -1.738821    0.743303
     15          1           0       -3.259244   -0.954393   -0.579301
     16          1           0       -1.770459   -1.865197   -0.904355
     17          1           0       -2.373996    1.756242   -0.736545
     18          1           0       -1.777402    1.852302    0.925344
     19          1           0       -3.265247    0.957236    0.555076
 ---------------------------------------------------------------------
 Rotational constants (GHZ):           3.6597262           1.2414457           0.9448448
 Leave Link  202 at Thu Jan 22 16:28:37 2026, MaxMem=  1610612736 cpu:               0.0 elap:               0.1
 (Enter /leonardo/prod/opt/applications/g16/c02/binary/g16/l301.exe)
 Standard basis: def2SVP (5D, 7F)
 Ernie: Thresh=  0.10000D-02 Tol=  0.10000D-05 Strict=F.
 There are   185 symmetry adapted cartesian basis functions of A   symmetry.
 There are   176 symmetry adapted basis functions of A   symmetry.
   176 basis functions,   295 primitive gaussians,   185 cartesian basis functions
    33 alpha electrons       32 beta electrons
       nuclear repulsion energy       435.8134607653 Hartrees.
 IExCor= 4336 DFT=T Ex+Corr=M062X ExCW=0 ScaHFX=  0.540000
 ScaDFX=  1.000000  1.000000  1.000000  1.000000 ScalE2=  1.000000  1.000000
 IRadAn=      5 IRanWt=     -1 IRanGd=            0 ICorTp=0 IEmpDi=131
 NAtoms=   19 NActive=   19 NUniq=   19 SFac= 1.00D+00 NAtFMM=   60 NAOKFM=F Big=F
 Integral buffers will be    131072 words long.
 Raffenetti 2 integral format.
 Two-electron integral symmetry is turned on.
 R6Disp:  Grimme-D3 Dispersion energy=       -0.0005431147 Hartrees.
 Nuclear repulsion after empirical dispersion term =      435.8129176507 Hartrees.
 ------------------------------------------------------------------------------
 Polarizable Continuum Model (PCM)
 =================================
 Model                : PCM.
 Atomic radii         : UFF (Universal Force Field).
 Polarization charges : Total charges.
 Charge compensation  : None.
 Solution method      : On-the-fly selection.
 Cavity type          : Scaled VdW (van der Waals Surface) (Alpha=1.100).
 Cavity algorithm     : GePol (No added spheres)
                        Default sphere list used, NSphG=   19.
                        Lebedev-Laikov grids with approx.  5.0 points / Ang**2.
                        Smoothing algorithm: York/Karplus (Gamma=1.0000).
                        Polarization charges: spherical gaussians, with
                                              point-specific exponents (IZeta= 3).
                        Self-potential: point-specific (ISelfS= 7).
                        Self-field    : sphere-specific E.n sum rule (ISelfD= 2).
 1st derivatives      : Analytical E(r).r(x)/FMM algorithm (CHGder, D1EAlg=3).
                        Cavity 1st derivative terms included.
 Solvent              : Water, Eps=  78.355300 Eps(inf)=   1.777849
 ------------------------------------------------------------------------------
 Spheres list:
 ISph  on   Nord     Re0    Alpha      Xe            Ye            Ze
    1   C      1    1.9255  1.100     -0.168898     -0.000794     -0.000989
    2   C      2    1.9255  1.100      0.569066     -1.201376      0.108544
    3   C      3    1.9255  1.100      0.568541      1.200336     -0.107788
    4   C      4    1.9255  1.100      1.948654     -1.138320      0.106385
    5   H      5    1.4430  1.100      0.089209     -2.155956      0.233815
    6   N      6    1.8300  1.100     -1.523853     -0.000375     -0.000804
    7   C      7    1.9255  1.100      1.948207      1.138336     -0.105007
    8   H      8    1.4430  1.100      0.088304      2.154727     -0.232911
    9   N      9    1.8300  1.100      2.607170     -0.000069     -0.001453
   10   H     10    1.4430  1.100      2.550295     -2.030649      0.196453
   11   C     11    1.9255  1.100     -2.268661     -1.199991     -0.201330
   12   C     12    1.9255  1.100     -2.265441      1.201186      0.201788
   13   H     13    1.4430  1.100      2.548855      2.031352     -0.194701
   14   H     14    1.4430  1.100     -2.402344     -1.738821      0.743303
   15   H     15    1.4430  1.100     -3.259244     -0.954393     -0.579301
   16   H     16    1.4430  1.100     -1.770459     -1.865197     -0.904355
   17   H     17    1.4430  1.100     -2.373996      1.756242     -0.736545
   18   H     18    1.4430  1.100     -1.777402      1.852302      0.925344
   19   H     19    1.4430  1.100     -3.265247      0.957236      0.555076
 ------------------------------------------------------------------------------
 GePol: Number of generator spheres                  =      19
 GePol: Total number of spheres                      =      19
 GePol: Number of exposed spheres                    =      19 (100.00%)
 GePol: Number of points                             =    1474
 GePol: Average weight of points                     =       0.13
 GePol: Minimum weight of points                     =   0.11D-09
 GePol: Maximum weight of points                     =    0.20577
 GePol: Number of points with low weight             =      81
 GePol: Fraction of low-weight points (<1% of avg)   =       5.50%
 GePol: Cavity surface area                          =    192.794 Ang**2
 GePol: Cavity volume                                =    192.950 Ang**3
 Leave Link  301 at Thu Jan 22 16:28:38 2026, MaxMem=  1610612736 cpu:               0.1 elap:               0.2
 (Enter /leonardo/prod/opt/applications/g16/c02/binary/g16/l302.exe)
 NPDir=0 NMtPBC=     1 NCelOv=     1 NCel=       1 NClECP=     1 NCelD=      1
         NCelK=      1 NCelE2=     1 NClLst=     1 CellRange=     0.0.
 One-electron integrals computed using PRISM.
 One-electron integral symmetry used in STVInt
   1 Symmetry operations used in ECPInt.
 ECPInt:  NShTT=    3570 NPrTT=   12708 LenC2=    3537 LenP2D=   10047.
 LDataN:  DoStor=T MaxTD1= 4 Len=   56
 NBasis=   176 RedAO= T EigKep=  6.42D-04  NBF=   176
 NBsUse=   176 1.00D-06 EigRej= -1.00D+00 NBFU=   176
 Precomputing XC quadrature grid using
 IXCGrd= 4 IRadAn=           5 IRanWt=          -1 IRanGd=           0 AccXCQ= 0.00D+00.
 Generated NRdTot=       0 NPtTot=           0 NUsed=           0 NTot=          32
 NSgBfM=   185   185   185   185   185 MxSgAt=    19 MxSgA2=    19.
 Leave Link  302 at Thu Jan 22 16:28:38 2026, MaxMem=  1610612736 cpu:               1.0 elap:               0.3
 (Enter /leonardo/prod/opt/applications/g16/c02/binary/g16/l303.exe)
 DipDrv:  MaxL=1.
 Leave Link  303 at Thu Jan 22 16:28:39 2026, MaxMem=  1610612736 cpu:               0.1 elap:               0.2
 (Enter /leonardo/prod/opt/applications/g16/c02/binary/g16/l401.exe)
 ExpMin= 1.22D-01 ExpMax= 1.71D+03 ExpMxC= 2.58D+02 IAcc=3 IRadAn=         5 AccDes= 0.00D+00
 Harris functional with IExCor= 1009 and IRadAn=       5 diagonalized for initial guess.
 HarFok:  IExCor= 1009 AccDes= 0.00D+00 IRadAn=         5 IDoV= 1 UseB2=F ITyADJ=14
 ICtDFT=  3500011 ScaDFX=  1.000000  1.000000  1.000000  1.000000
 FoFCou: FMM=F IPFlag=           0 FMFlag=      100000 FMFlg1=           0
         NFxFlg=           0 DoJE=T BraDBF=F KetDBF=T FulRan=T
         wScrn=  0.000000 ICntrl=       500 IOpCl=  0 I1Cent=   200000004 NGrid=           0
         NMat0=    1 NMatS0=      1 NMatT0=    0 NMatD0=    1 NMtDS0=    0 NMtDT0=    0
 Petite list used in FoFCou.
 Harris En= -381.333807768263    
 JPrj=0 DoOrth=F DoCkMO=F.
 Initial guess <Sx>= 0.0000 <Sy>= 0.0000 <Sz>= 0.5000 <S**2>= 0.7500 S= 0.5000
 Leave Link  401 at Thu Jan 22 16:28:40 2026, MaxMem=  1610612736 cpu:               3.8 elap:               0.5
 (Enter /leonardo/prod/opt/applications/g16/c02/binary/g16/l502.exe)
 Integral symmetry usage will be decided dynamically.
 UHF open shell SCF:
 Using DIIS extrapolation, IDIIS=  1040.
 NGot=  1610612736 LenX=  1610539504 LenY=  1610504838
 Requested convergence on RMS density matrix=1.00D-08 within 128 cycles.
 Requested convergence on MAX density matrix=1.00D-06.
 Requested convergence on             energy=1.00D-06.
 No special actions if energy rises.
 Fock matrices will be formed incrementally for  20 cycles.

 Cycle   1  Pass 1  IDiag  1:
 FoFJK:  IHMeth= 1 ICntrl=       0 DoSepK=F KAlg= 0 I1Cent=           0 FoldK=F
 IRaf= 970000000 NMat=       1 IRICut=       1 DoRegI=T DoRafI=F ISym2E= 0 IDoP0=0 IntGTp=1.
 FoFCou: FMM=F IPFlag=           0 FMFlag=      100000 FMFlg1=           0
         NFxFlg=           0 DoJE=F BraDBF=F KetDBF=F FulRan=T
         wScrn=  0.000000 ICntrl=         0 IOpCl=  1 I1Cent=           0 NGrid=           0
         NMat0=    1 NMatS0=      1 NMatT0=    0 NMatD0=    1 NMtDS0=    0 NMtDT0=    0
 Symmetry not used in FoFCou.
 Inv3:  Mode=1 IEnd=     6518028.
 Iteration    1 A*A^-1 deviation from unit magnitude is 3.11D-15 for    921.
 Iteration    1 A*A^-1 deviation from orthogonality  is 2.45D-15 for   1148    377.
 Iteration    1 A^-1*A deviation from unit magnitude is 2.89D-15 for    921.
 Iteration    1 A^-1*A deviation from orthogonality  is 1.55D-15 for   1446   1335.
 E= -381.432648792395    
 DIIS: error= 3.49D-02 at cycle   1 NSaved=   1.
 NSaved= 1 IEnMin= 1 EnMin= -381.432648792395     IErMin= 1 ErrMin= 3.49D-02
 ErrMax= 3.49D-02  0.00D+00 EMaxC= 1.00D-01 BMatC= 6.46D-01 BMatP= 6.46D-01
 IDIUse=3 WtCom= 6.51D-01 WtEn= 3.49D-01
 Coeff-Com:  0.100D+01
 Coeff-En:   0.100D+01
 Coeff:      0.100D+01
 Gap=     0.411 Goal=   None    Shift=    0.000
 Gap=     0.080 Goal=   None    Shift=    0.000
 GapD=    0.080 DampG=0.500 DampE=0.500 DampFc=0.2500 IDamp=-1.
 Damping current iteration by 2.50D-01
 RMSDP=4.45D-03 MaxDP=1.06D-01              OVMax= 2.04D-01

 Cycle   2  Pass 1  IDiag  1:
 RMSU=  1.09D-03    CP:  9.90D-01
 E= -381.485076126452     Delta-E=       -0.052427334057 Rises=F Damp=T
 DIIS: error= 2.12D-02 at cycle   2 NSaved=   2.
 NSaved= 2 IEnMin= 2 EnMin= -381.485076126452     IErMin= 2 ErrMin= 2.12D-02
 ErrMax= 2.12D-02  0.00D+00 EMaxC= 1.00D-01 BMatC= 2.22D-01 BMatP= 6.46D-01
 IDIUse=3 WtCom= 7.88D-01 WtEn= 2.12D-01
 Coeff-Com: -0.110D+01 0.210D+01
 Coeff-En:   0.000D+00 0.100D+01
 Coeff:     -0.866D+00 0.187D+01
 Gap=     0.339 Goal=   None    Shift=    0.000
 Gap=     0.181 Goal=   None    Shift=    0.000
 RMSDP=2.28D-03 MaxDP=4.64D-02 DE=-5.24D-02 OVMax= 1.31D-01

 Cycle   3  Pass 1  IDiag  1:
 RMSU=  1.11D-03    CP:  9.68D-01  2.76D+00
 E= -381.584399936866     Delta-E=       -0.099323810414 Rises=F Damp=F
 DIIS: error= 4.94D-03 at cycle   3 NSaved=   3.
 NSaved= 3 IEnMin= 3 EnMin= -381.584399936866     IErMin= 3 ErrMin= 4.94D-03
 ErrMax= 4.94D-03  0.00D+00 EMaxC= 1.00D-01 BMatC= 1.20D-02 BMatP= 2.22D-01
 IDIUse=3 WtCom= 9.51D-01 WtEn= 4.94D-02
 Coeff-Com: -0.266D+00 0.518D+00 0.748D+00
 Coeff-En:   0.000D+00 0.000D+00 0.100D+01
 Coeff:     -0.253D+00 0.493D+00 0.761D+00
 Gap=     0.324 Goal=   None    Shift=    0.000
 Gap=     0.170 Goal=   None    Shift=    0.000
 RMSDP=4.20D-04 MaxDP=2.20D-02 DE=-9.93D-02 OVMax= 2.51D-02

 Cycle   4  Pass 1  IDiag  1:
 RMSU=  3.85D-04    CP:  9.71D-01  2.72D+00  8.72D-01
 E= -381.587157157530     Delta-E=       -0.002757220664 Rises=F Damp=F
 DIIS: error= 2.27D-03 at cycle   4 NSaved=   4.
 NSaved= 4 IEnMin= 4 EnMin= -381.587157157530     IErMin= 4 ErrMin= 2.27D-03
 ErrMax= 2.27D-03  0.00D+00 EMaxC= 1.00D-01 BMatC= 2.64D-03 BMatP= 1.20D-02
 IDIUse=3 WtCom= 9.77D-01 WtEn= 2.27D-02
 Coeff-Com:  0.148D-01-0.132D-01 0.302D+00 0.697D+00
 Coeff-En:   0.000D+00 0.000D+00 0.000D+00 0.100D+01
 Coeff:      0.145D-01-0.129D-01 0.295D+00 0.704D+00
 Gap=     0.324 Goal=   None    Shift=    0.000
 Gap=     0.178 Goal=   None    Shift=    0.000
 RMSDP=1.62D-04 MaxDP=7.38D-03 DE=-2.76D-03 OVMax= 1.27D-02

 Cycle   5  Pass 1  IDiag  1:
 RMSU=  1.26D-04    CP:  9.70D-01  2.70D+00  9.40D-01  8.41D-01
 E= -381.587936634797     Delta-E=       -0.000779477268 Rises=F Damp=F
 DIIS: error= 7.62D-04 at cycle   5 NSaved=   5.
 NSaved= 5 IEnMin= 5 EnMin= -381.587936634797     IErMin= 5 ErrMin= 7.62D-04
 ErrMax= 7.62D-04  0.00D+00 EMaxC= 1.00D-01 BMatC= 1.90D-04 BMatP= 2.64D-03
 IDIUse=3 WtCom= 9.92D-01 WtEn= 7.62D-03
 Coeff-Com:  0.154D-01-0.284D-01 0.214D-01 0.185D+00 0.807D+00
 Coeff-En:   0.000D+00 0.000D+00 0.000D+00 0.000D+00 0.100D+01
 Coeff:      0.153D-01-0.282D-01 0.213D-01 0.183D+00 0.808D+00
 Gap=     0.326 Goal=   None    Shift=    0.000
 Gap=     0.178 Goal=   None    Shift=    0.000
 RMSDP=6.28D-05 MaxDP=2.59D-03 DE=-7.79D-04 OVMax= 5.07D-03

 Cycle   6  Pass 1  IDiag  1:
 RMSU=  5.04D-05    CP:  9.70D-01  2.72D+00  9.49D-01  9.19D-01  1.11D+00
 E= -381.588042998276     Delta-E=       -0.000106363479 Rises=F Damp=F
 DIIS: error= 5.15D-04 at cycle   6 NSaved=   6.
 NSaved= 6 IEnMin= 6 EnMin= -381.588042998276     IErMin= 6 ErrMin= 5.15D-04
 ErrMax= 5.15D-04  0.00D+00 EMaxC= 1.00D-01 BMatC= 5.95D-05 BMatP= 1.90D-04
 IDIUse=3 WtCom= 9.95D-01 WtEn= 5.15D-03
 Coeff-Com: -0.344D-02 0.904D-03-0.720D-01-0.115D+00 0.251D+00 0.938D+00
 Coeff-En:   0.000D+00 0.000D+00 0.000D+00 0.000D+00 0.000D+00 0.100D+01
 Coeff:     -0.342D-02 0.900D-03-0.716D-01-0.115D+00 0.250D+00 0.939D+00
 Gap=     0.327 Goal=   None    Shift=    0.000
 Gap=     0.178 Goal=   None    Shift=    0.000
 RMSDP=4.91D-05 MaxDP=2.45D-03 DE=-1.06D-04 OVMax= 4.24D-03

 Cycle   7  Pass 1  IDiag  1:
 RMSU=  2.68D-05    CP:  9.70D-01  2.72D+00  9.56D-01  9.72D-01  1.37D+00
                    CP:  1.21D+00
 E= -381.588091219743     Delta-E=       -0.000048221467 Rises=F Damp=F
 DIIS: error= 2.68D-04 at cycle   7 NSaved=   7.
 NSaved= 7 IEnMin= 7 EnMin= -381.588091219743     IErMin= 7 ErrMin= 2.68D-04
 ErrMax= 2.68D-04  0.00D+00 EMaxC= 1.00D-01 BMatC= 1.53D-05 BMatP= 5.95D-05
 IDIUse=3 WtCom= 9.97D-01 WtEn= 2.68D-03
 Coeff-Com: -0.786D-02 0.115D-01-0.340D-01-0.922D-01-0.147D+00 0.365D+00
 Coeff-Com:  0.905D+00
 Coeff-En:   0.000D+00 0.000D+00 0.000D+00 0.000D+00 0.000D+00 0.000D+00
 Coeff-En:   0.100D+01
 Coeff:     -0.784D-02 0.114D-01-0.339D-01-0.920D-01-0.147D+00 0.364D+00
 Coeff:      0.905D+00
 Gap=     0.327 Goal=   None    Shift=    0.000
 Gap=     0.179 Goal=   None    Shift=    0.000
 RMSDP=2.84D-05 MaxDP=1.31D-03 DE=-4.82D-05 OVMax= 2.80D-03

 Cycle   8  Pass 1  IDiag  1:
 RMSU=  1.20D-05    CP:  9.70D-01  2.72D+00  9.57D-01  9.96D-01  1.48D+00
                    CP:  1.56D+00  1.25D+00
 E= -381.588104076190     Delta-E=       -0.000012856447 Rises=F Damp=F
 DIIS: error= 1.09D-04 at cycle   8 NSaved=   8.
 NSaved= 8 IEnMin= 8 EnMin= -381.588104076190     IErMin= 8 ErrMin= 1.09D-04
 ErrMax= 1.09D-04  0.00D+00 EMaxC= 1.00D-01 BMatC= 2.56D-06 BMatP= 1.53D-05
 IDIUse=3 WtCom= 9.99D-01 WtEn= 1.09D-03
 Coeff-Com: -0.333D-02 0.524D-02-0.520D-02-0.196D-01-0.873D-01 0.179D-01
 Coeff-Com:  0.325D+00 0.767D+00
 Coeff-En:   0.000D+00 0.000D+00 0.000D+00 0.000D+00 0.000D+00 0.000D+00
 Coeff-En:   0.000D+00 0.100D+01
 Coeff:     -0.333D-02 0.523D-02-0.520D-02-0.196D-01-0.872D-01 0.179D-01
 Coeff:      0.325D+00 0.767D+00
 Gap=     0.328 Goal=   None    Shift=    0.000
 Gap=     0.179 Goal=   None    Shift=    0.000
 RMSDP=9.62D-06 MaxDP=4.06D-04 DE=-1.29D-05 OVMax= 8.83D-04

 Cycle   9  Pass 1  IDiag  1:
 RMSU=  5.60D-06    CP:  9.70D-01  2.72D+00  9.58D-01  9.99D-01  1.51D+00
                    CP:  1.65D+00  1.44D+00  1.10D+00
 E= -381.588105962932     Delta-E=       -0.000001886742 Rises=F Damp=F
 DIIS: error= 6.82D-05 at cycle   9 NSaved=   9.
 NSaved= 9 IEnMin= 9 EnMin= -381.588105962932     IErMin= 9 ErrMin= 6.82D-05
 ErrMax= 6.82D-05  0.00D+00 EMaxC= 1.00D-01 BMatC= 5.82D-07 BMatP= 2.56D-06
 IDIUse=1 WtCom= 1.00D+00 WtEn= 0.00D+00
 Coeff-Com:  0.106D-02-0.155D-02 0.921D-02 0.266D-01 0.318D-01-0.110D+00
 Coeff-Com: -0.240D+00 0.161D+00 0.112D+01
 Coeff:      0.106D-02-0.155D-02 0.921D-02 0.266D-01 0.318D-01-0.110D+00
 Coeff:     -0.240D+00 0.161D+00 0.112D+01
 Gap=     0.328 Goal=   None    Shift=    0.000
 Gap=     0.179 Goal=   None    Shift=    0.000
 RMSDP=7.51D-06 MaxDP=3.08D-04 DE=-1.89D-06 OVMax= 8.69D-04

 Cycle  10  Pass 1  IDiag  1:
 RMSU=  2.48D-06    CP:  9.70D-01  2.72D+00  9.57D-01  1.00D+00  1.51D+00
                    CP:  1.71D+00  1.59D+00  1.46D+00  1.40D+00
 E= -381.588106693896     Delta-E=       -0.000000730965 Rises=F Damp=F
 DIIS: error= 2.57D-05 at cycle  10 NSaved=  10.
 NSaved=10 IEnMin=10 EnMin= -381.588106693896     IErMin=10 ErrMin= 2.57D-05
 ErrMax= 2.57D-05  0.00D+00 EMaxC= 1.00D-01 BMatC= 8.41D-08 BMatP= 5.82D-07
 IDIUse=1 WtCom= 1.00D+00 WtEn= 0.00D+00
 Coeff-Com:  0.752D-03-0.115D-02 0.286D-02 0.816D-02 0.187D-01-0.274D-01
 Coeff-Com: -0.975D-01-0.446D-01 0.169D+00 0.971D+00
 Coeff:      0.752D-03-0.115D-02 0.286D-02 0.816D-02 0.187D-01-0.274D-01
 Coeff:     -0.975D-01-0.446D-01 0.169D+00 0.971D+00
 Gap=     0.328 Goal=   None    Shift=    0.000
 Gap=     0.179 Goal=   None    Shift=    0.000
 RMSDP=2.76D-06 MaxDP=1.22D-04 DE=-7.31D-07 OVMax= 2.78D-04

 Cycle  11  Pass 1  IDiag  1:
 RMSU=  1.17D-06    CP:  9.70D-01  2.72D+00  9.58D-01  1.00D+00  1.52D+00
                    CP:  1.72D+00  1.63D+00  1.57D+00  1.65D+00  1.39D+00
 E= -381.588106815381     Delta-E=       -0.000000121485 Rises=F Damp=F
 DIIS: error= 1.47D-05 at cycle  11 NSaved=  11.
 NSaved=11 IEnMin=11 EnMin= -381.588106815381     IErMin=11 ErrMin= 1.47D-05
 ErrMax= 1.47D-05  0.00D+00 EMaxC= 1.00D-01 BMatC= 3.84D-08 BMatP= 8.41D-08
 IDIUse=1 WtCom= 1.00D+00 WtEn= 0.00D+00
 Coeff-Com:  0.816D-04-0.114D-03-0.183D-02-0.615D-02-0.356D-02 0.246D-01
 Coeff-Com:  0.417D-01-0.442D-01-0.325D+00 0.368D+00 0.946D+00
 Coeff:      0.816D-04-0.114D-03-0.183D-02-0.615D-02-0.356D-02 0.246D-01
 Coeff:      0.417D-01-0.442D-01-0.325D+00 0.368D+00 0.946D+00
 Gap=     0.328 Goal=   None    Shift=    0.000
 Gap=     0.179 Goal=   None    Shift=    0.000
 RMSDP=1.72D-06 MaxDP=6.72D-05 DE=-1.21D-07 OVMax= 2.10D-04

 Cycle  12  Pass 1  IDiag  1:
 RMSU=  6.27D-07    CP:  9.70D-01  2.72D+00  9.58D-01  1.00D+00  1.52D+00
                    CP:  1.73D+00  1.64D+00  1.62D+00  1.77D+00  1.83D+00
                    CP:  1.36D+00
 E= -381.588106859994     Delta-E=       -0.000000044613 Rises=F Damp=F
 DIIS: error= 5.47D-06 at cycle  12 NSaved=  12.
 NSaved=12 IEnMin=12 EnMin= -381.588106859994     IErMin=12 ErrMin= 5.47D-06
 ErrMax= 5.47D-06  0.00D+00 EMaxC= 1.00D-01 BMatC= 8.13D-09 BMatP= 3.84D-08
 IDIUse=1 WtCom= 1.00D+00 WtEn= 0.00D+00
 Coeff-Com:  0.357D-04-0.166D-04-0.664D-03-0.281D-02-0.394D-02 0.860D-02
 Coeff-Com:  0.270D-01 0.952D-02-0.940D-01-0.158D+00 0.424D-01 0.117D+01
 Coeff:      0.357D-04-0.166D-04-0.664D-03-0.281D-02-0.394D-02 0.860D-02
 Coeff:      0.270D-01 0.952D-02-0.940D-01-0.158D+00 0.424D-01 0.117D+01
 Gap=     0.328 Goal=   None    Shift=    0.000
 Gap=     0.179 Goal=   None    Shift=    0.000
 RMSDP=1.03D-06 MaxDP=4.13D-05 DE=-4.46D-08 OVMax= 1.77D-04

 Cycle  13  Pass 1  IDiag  1:
 RMSU=  2.67D-07    CP:  9.70D-01  2.72D+00  9.58D-01  1.00D+00  1.52D+00
                    CP:  1.73D+00  1.65D+00  1.64D+00  1.83D+00  2.08D+00
                    CP:  1.83D+00  1.53D+00
 E= -381.588106872735     Delta-E=       -0.000000012741 Rises=F Damp=F
 DIIS: error= 2.39D-06 at cycle  13 NSaved=  13.
 NSaved=13 IEnMin=13 EnMin= -381.588106872735     IErMin=13 ErrMin= 2.39D-06
 ErrMax= 2.39D-06  0.00D+00 EMaxC= 1.00D-01 BMatC= 2.02D-09 BMatP= 8.13D-09
 IDIUse=1 WtCom= 1.00D+00 WtEn= 0.00D+00
 Coeff-Com:  0.623D-04-0.736D-04 0.292D-03 0.520D-03-0.150D-03-0.375D-02
 Coeff-Com: -0.217D-02 0.150D-01 0.470D-01-0.107D+00-0.225D+00 0.269D+00
 Coeff-Com:  0.101D+01
 Coeff:      0.623D-04-0.736D-04 0.292D-03 0.520D-03-0.150D-03-0.375D-02
 Coeff:     -0.217D-02 0.150D-01 0.470D-01-0.107D+00-0.225D+00 0.269D+00
 Coeff:      0.101D+01
 Gap=     0.328 Goal=   None    Shift=    0.000
 Gap=     0.179 Goal=   None    Shift=    0.000
 RMSDP=4.66D-07 MaxDP=1.85D-05 DE=-1.27D-08 OVMax= 8.72D-05

 Cycle  14  Pass 1  IDiag  1:
 RMSU=  1.12D-07    CP:  9.70D-01  2.72D+00  9.58D-01  1.00D+00  1.52D+00
                    CP:  1.73D+00  1.65D+00  1.64D+00  1.85D+00  2.18D+00
                    CP:  2.04D+00  1.91D+00  1.37D+00
 E= -381.588106875166     Delta-E=       -0.000000002432 Rises=F Damp=F
 DIIS: error= 1.10D-06 at cycle  14 NSaved=  14.
 NSaved=14 IEnMin=14 EnMin= -381.588106875166     IErMin=14 ErrMin= 1.10D-06
 ErrMax= 1.10D-06  0.00D+00 EMaxC= 1.00D-01 BMatC= 2.18D-10 BMatP= 2.02D-09
 IDIUse=1 WtCom= 1.00D+00 WtEn= 0.00D+00
 Coeff-Com:  0.318D-04-0.474D-04 0.242D-03 0.749D-03 0.987D-03-0.306D-02
 Coeff-Com: -0.640D-02 0.230D-02 0.314D-01 0.584D-02-0.818D-01-0.170D+00
 Coeff-Com:  0.258D+00 0.962D+00
 Coeff:      0.318D-04-0.474D-04 0.242D-03 0.749D-03 0.987D-03-0.306D-02
 Coeff:     -0.640D-02 0.230D-02 0.314D-01 0.584D-02-0.818D-01-0.170D+00
 Coeff:      0.258D+00 0.962D+00
 Gap=     0.328 Goal=   None    Shift=    0.000
 Gap=     0.179 Goal=   None    Shift=    0.000
 RMSDP=1.96D-07 MaxDP=8.08D-06 DE=-2.43D-09 OVMax= 4.21D-05

 Cycle  15  Pass 1  IDiag  1:
 RMSU=  3.71D-08    CP:  9.70D-01  2.72D+00  9.58D-01  1.00D+00  1.52D+00
                    CP:  1.73D+00  1.65D+00  1.64D+00  1.85D+00  2.22D+00
                    CP:  2.13D+00  2.08D+00  1.65D+00  1.13D+00
 E= -381.588106875509     Delta-E=       -0.000000000342 Rises=F Damp=F
 DIIS: error= 1.89D-07 at cycle  15 NSaved=  15.
 NSaved=15 IEnMin=15 EnMin= -381.588106875509     IErMin=15 ErrMin= 1.89D-07
 ErrMax= 1.89D-07  0.00D+00 EMaxC= 1.00D-01 BMatC= 1.18D-11 BMatP= 2.18D-10
 IDIUse=1 WtCom= 1.00D+00 WtEn= 0.00D+00
 Coeff-Com: -0.643D-05 0.795D-05-0.487D-04-0.131D-03-0.767D-04 0.630D-03
 Coeff-Com:  0.106D-02-0.128D-02-0.903D-02 0.100D-01 0.286D-01-0.297D-02
 Coeff-Com: -0.138D+00-0.835D-01 0.119D+01
 Coeff:     -0.643D-05 0.795D-05-0.487D-04-0.131D-03-0.767D-04 0.630D-03
 Coeff:      0.106D-02-0.128D-02-0.903D-02 0.100D-01 0.286D-01-0.297D-02
 Coeff:     -0.138D+00-0.835D-01 0.119D+01
 Gap=     0.328 Goal=   None    Shift=    0.000
 Gap=     0.179 Goal=   None    Shift=    0.000
 RMSDP=4.53D-08 MaxDP=1.71D-06 DE=-3.42D-10 OVMax= 9.03D-06

 Cycle  16  Pass 1  IDiag  1:
 RMSU=  9.33D-09    CP:  9.70D-01  2.72D+00  9.58D-01  1.00D+00  1.52D+00
                    CP:  1.73D+00  1.65D+00  1.64D+00  1.85D+00  2.23D+00
                    CP:  2.14D+00  2.11D+00  1.72D+00  1.27D+00  1.32D+00
 E= -381.588106875526     Delta-E=       -0.000000000017 Rises=F Damp=F
 DIIS: error= 3.36D-08 at cycle  16 NSaved=  16.
 NSaved=16 IEnMin=16 EnMin= -381.588106875526     IErMin=16 ErrMin= 3.36D-08
 ErrMax= 3.36D-08  0.00D+00 EMaxC= 1.00D-01 BMatC= 4.55D-13 BMatP= 1.18D-11
 IDIUse=1 WtCom= 1.00D+00 WtEn= 0.00D+00
 Coeff-Com: -0.136D-05 0.212D-05-0.106D-04-0.351D-04-0.543D-04 0.127D-03
 Coeff-Com:  0.321D-03-0.793D-05-0.117D-02-0.118D-02 0.216D-02 0.104D-01
 Coeff-Com: -0.376D-02-0.518D-01-0.796D-01 0.112D+01
 Coeff:     -0.136D-05 0.212D-05-0.106D-04-0.351D-04-0.543D-04 0.127D-03
 Coeff:      0.321D-03-0.793D-05-0.117D-02-0.118D-02 0.216D-02 0.104D-01
 Coeff:     -0.376D-02-0.518D-01-0.796D-01 0.112D+01
 Gap=     0.328 Goal=   None    Shift=    0.000
 Gap=     0.179 Goal=   None    Shift=    0.000
 RMSDP=6.98D-09 MaxDP=3.28D-07 DE=-1.67D-11 OVMax= 1.11D-06

 Error on total polarization charges =  0.00642
 SCF Done:  E(UM062X) =  -381.588106876     A.U. after   16 cycles
            NFock= 16  Conv=0.70D-08     -V/T= 2.0098
 <Sx>= 0.0000 <Sy>= 0.0000 <Sz>= 0.5000 <S**2>= 0.7759 S= 0.5128
 <L.S>=  0.00000000000    
 KE= 3.778731375410D+02 PE=-1.742591818039D+03 EE= 5.473176559714D+02
 Annihilation of the first spin contaminant:
 S**2 before annihilation     0.7759,   after     0.7504
 Leave Link  502 at Thu Jan 22 16:29:01 2026, MaxMem=  1610612736 cpu:             224.9 elap:              20.7
 (Enter /leonardo/prod/opt/applications/g16/c02/binary/g16/l601.exe)
 Copying SCF densities to generalized density rwf, IOpCl= 1 IROHF=0.

 **********************************************************************

            Population analysis using the SCF Density.

 **********************************************************************

 Orbital symmetries:
 Alpha Orbitals:
       Occupied  (A) (A) (A) (A) (A) (A) (A) (A) (A) (A) (A) (A)
                 (A) (A) (A) (A) (A) (A) (A) (A) (A) (A) (A) (A)
                 (A) (A) (A) (A) (A) (A) (A) (A) (A)
       Virtual   (A) (A) (A) (A) (A) (A) (A) (A) (A) (A) (A) (A)
                 (A) (A) (A) (A) (A) (A) (A) (A) (A) (A) (A) (A)
                 (A) (A) (A) (A) (A) (A) (A) (A) (A) (A) (A) (A)
                 (A) (A) (A) (A) (A) (A) (A) (A) (A) (A) (A) (A)
                 (A) (A) (A) (A) (A) (A) (A) (A) (A) (A) (A) (A)
                 (A) (A) (A) (A) (A) (A) (A) (A) (A) (A) (A) (A)
                 (A) (A) (A) (A) (A) (A) (A) (A) (A) (A) (A) (A)
                 (A) (A) (A) (A) (A) (A) (A) (A) (A) (A) (A) (A)
                 (A) (A) (A) (A) (A) (A) (A) (A) (A) (A) (A) (A)
                 (A) (A) (A) (A) (A) (A) (A) (A) (A) (A) (A) (A)
                 (A) (A) (A) (A) (A) (A) (A) (A) (A) (A) (A) (A)
                 (A) (A) (A) (A) (A) (A) (A) (A) (A) (A) (A)
 Beta  Orbitals:
       Occupied  (A) (A) (A) (A) (A) (A) (A) (A) (A) (A) (A) (A)
                 (A) (A) (A) (A) (A) (A) (A) (A) (A) (A) (A) (A)
                 (A) (A) (A) (A) (A) (A) (A) (A)
       Virtual   (A) (A) (A) (A) (A) (A) (A) (A) (A) (A) (A) (A)
                 (A) (A) (A) (A) (A) (A) (A) (A) (A) (A) (A) (A)
                 (A) (A) (A) (A) (A) (A) (A) (A) (A) (A) (A) (A)
                 (A) (A) (A) (A) (A) (A) (A) (A) (A) (A) (A) (A)
                 (A) (A) (A) (A) (A) (A) (A) (A) (A) (A) (A) (A)
                 (A) (A) (A) (A) (A) (A) (A) (A) (A) (A) (A) (A)
                 (A) (A) (A) (A) (A) (A) (A) (A) (A) (A) (A) (A)
                 (A) (A) (A) (A) (A) (A) (A) (A) (A) (A) (A) (A)
                 (A) (A) (A) (A) (A) (A) (A) (A) (A) (A) (A) (A)
                 (A) (A) (A) (A) (A) (A) (A) (A) (A) (A) (A) (A)
                 (A) (A) (A) (A) (A) (A) (A) (A) (A) (A) (A) (A)
                 (A) (A) (A) (A) (A) (A) (A) (A) (A) (A) (A) (A)
 The electronic state is 2-A.
 Alpha  occ. eigenvalues --  -14.91704 -14.79662 -10.66769 -10.62598 -10.62591
 Alpha  occ. eigenvalues --  -10.62235 -10.62235 -10.61385 -10.61379  -1.16868
 Alpha  occ. eigenvalues --   -1.09248  -0.94740  -0.90611  -0.87366  -0.82982
 Alpha  occ. eigenvalues --   -0.75703  -0.71338  -0.67128  -0.63602  -0.63162
 Alpha  occ. eigenvalues --   -0.58530  -0.57037  -0.57027  -0.54208  -0.52094
 Alpha  occ. eigenvalues --   -0.51701  -0.51494  -0.49018  -0.46401  -0.44160
 Alpha  occ. eigenvalues --   -0.36504  -0.36105  -0.34776
 Alpha virt. eigenvalues --   -0.02019  -0.01952   0.08539   0.10781   0.11699
 Alpha virt. eigenvalues --    0.12780   0.13967   0.15000   0.15595   0.16046
 Alpha virt. eigenvalues --    0.16568   0.17684   0.17764   0.19773   0.21848
 Alpha virt. eigenvalues --    0.22007   0.28569   0.29500   0.31434   0.32357
 Alpha virt. eigenvalues --    0.35388   0.41074   0.41241   0.42399   0.43095
 Alpha virt. eigenvalues --    0.46304   0.47061   0.47528   0.48250   0.52112
 Alpha virt. eigenvalues --    0.54078   0.55403   0.55471   0.57951   0.62328
 Alpha virt. eigenvalues --    0.62616   0.63451   0.65407   0.65508   0.66958
 Alpha virt. eigenvalues --    0.67265   0.67453   0.69574   0.69815   0.70081
 Alpha virt. eigenvalues --    0.70768   0.71718   0.73111   0.74862   0.74897
 Alpha virt. eigenvalues --    0.76843   0.79598   0.80984   0.84468   0.86492
 Alpha virt. eigenvalues --    0.86630   0.92263   0.92430   0.97987   1.02134
 Alpha virt. eigenvalues --    1.08045   1.08595   1.11757   1.15888   1.16202
 Alpha virt. eigenvalues --    1.21213   1.24248   1.25724   1.27272   1.27558
 Alpha virt. eigenvalues --    1.34218   1.34731   1.37769   1.38620   1.49044
 Alpha virt. eigenvalues --    1.50639   1.53207   1.54666   1.55974   1.56128
 Alpha virt. eigenvalues --    1.65578   1.70689   1.70761   1.73215   1.75803
 Alpha virt. eigenvalues --    1.76154   1.77894   1.78377   1.79973   1.80673
 Alpha virt. eigenvalues --    1.81227   1.84066   1.85538   1.86331   1.88370
 Alpha virt. eigenvalues --    1.89003   1.91723   1.93850   1.96036   1.97219
 Alpha virt. eigenvalues --    1.98803   2.04284   2.04639   2.08386   2.11140
 Alpha virt. eigenvalues --    2.14469   2.16067   2.19242   2.19593   2.23067
 Alpha virt. eigenvalues --    2.24982   2.26962   2.31982   2.33056   2.37233
 Alpha virt. eigenvalues --    2.40217   2.41395   2.41775   2.43741   2.50779
 Alpha virt. eigenvalues --    2.58635   2.60000   2.61725   2.63547   2.67350
 Alpha virt. eigenvalues --    2.69936   2.70791   2.74243   2.79614   2.80506
 Alpha virt. eigenvalues --    2.84320   2.88213   2.90149   2.90389   2.94259
 Alpha virt. eigenvalues --    2.96054   2.98745   3.02764   3.12036   3.19628
 Alpha virt. eigenvalues --    3.24941   3.38502   3.65185
  Beta  occ. eigenvalues --  -14.90799 -14.79459 -10.66874 -10.62633 -10.62626
  Beta  occ. eigenvalues --  -10.62307 -10.62306 -10.61257 -10.61250  -1.14531
  Beta  occ. eigenvalues --   -1.08657  -0.93970  -0.90222  -0.86790  -0.82068
  Beta  occ. eigenvalues --   -0.75356  -0.70825  -0.66342  -0.62829  -0.59392
  Beta  occ. eigenvalues --   -0.57985  -0.56927  -0.56210  -0.54017  -0.51208
  Beta  occ. eigenvalues --   -0.50690  -0.50482  -0.48782  -0.46124  -0.40906
  Beta  occ. eigenvalues --   -0.35557  -0.35373
  Beta virt. eigenvalues --   -0.17489  -0.01118   0.00181   0.08326   0.10925
  Beta virt. eigenvalues --    0.11521   0.12778   0.14045   0.15089   0.15433
  Beta virt. eigenvalues --    0.16305   0.17146   0.17866   0.17893   0.19847
  Beta virt. eigenvalues --    0.21946   0.22400   0.28779   0.29869   0.31654
  Beta virt. eigenvalues --    0.32550   0.35404   0.41164   0.41612   0.42615
  Beta virt. eigenvalues --    0.43659   0.46398   0.47287   0.47770   0.48370
  Beta virt. eigenvalues --    0.52426   0.54436   0.55342   0.55589   0.58177
  Beta virt. eigenvalues --    0.62697   0.62803   0.63439   0.65466   0.65679
  Beta virt. eigenvalues --    0.67099   0.67460   0.67508   0.69695   0.69771
  Beta virt. eigenvalues --    0.70329   0.70873   0.71806   0.73408   0.74810
  Beta virt. eigenvalues --    0.74878   0.76979   0.80059   0.81198   0.85230
  Beta virt. eigenvalues --    0.86805   0.89551   0.92670   0.93889   0.98567
  Beta virt. eigenvalues --    1.02651   1.08184   1.08992   1.12324   1.16201
  Beta virt. eigenvalues --    1.16661   1.21780   1.25114   1.26390   1.27966
  Beta virt. eigenvalues --    1.28010   1.34303   1.35155   1.37872   1.38729
  Beta virt. eigenvalues --    1.49182   1.51038   1.53839   1.55202   1.56054
  Beta virt. eigenvalues --    1.56269   1.66342   1.70677   1.71128   1.73749
  Beta virt. eigenvalues --    1.76169   1.76321   1.78087   1.78581   1.80150
  Beta virt. eigenvalues --    1.80751   1.81280   1.84341   1.85683   1.86737
  Beta virt. eigenvalues --    1.88572   1.89347   1.91873   1.94204   1.96199
  Beta virt. eigenvalues --    1.97377   1.99176   2.04497   2.04648   2.08654
  Beta virt. eigenvalues --    2.11392   2.14779   2.16719   2.19667   2.20651
  Beta virt. eigenvalues --    2.23450   2.25553   2.27301   2.32610   2.33782
  Beta virt. eigenvalues --    2.37983   2.40483   2.41474   2.41971   2.43803
  Beta virt. eigenvalues --    2.51311   2.59430   2.60829   2.62291   2.63933
  Beta virt. eigenvalues --    2.67878   2.70986   2.71691   2.74591   2.80759
  Beta virt. eigenvalues --    2.81320   2.85304   2.88309   2.90537   2.91130
  Beta virt. eigenvalues --    2.94499   2.96615   2.99153   3.03274   3.12589
  Beta virt. eigenvalues --    3.20422   3.25532   3.39517   3.65739
          Condensed to atoms (all electrons):
               1          2          3          4          5          6
     1  C    5.099656   0.329377   0.329254   0.014556  -0.057740   0.373992
     2  C    0.329377   5.020182  -0.022682   0.456273   0.432446  -0.081338
     3  C    0.329254  -0.022682   5.020541  -0.060635   0.010300  -0.081575
     4  C    0.014556   0.456273  -0.060635   4.668760  -0.030442   0.005693
     5  H   -0.057740   0.432446   0.010300  -0.030442   0.578569  -0.012949
     6  N    0.373992  -0.081338  -0.081575   0.005693  -0.012949   6.511351
     7  C    0.014595  -0.060766   0.455729  -0.056899  -0.000442   0.005721
     8  H   -0.057736   0.010322   0.432463  -0.000443   0.000022  -0.013094
     9  N   -0.070309  -0.027648  -0.027563   0.498058   0.005899  -0.000324
    10  H    0.007757  -0.058900   0.000772   0.432825  -0.006836  -0.000091
    11  C   -0.061056   0.007525   0.006444   0.000939   0.008699   0.302646
    12  C   -0.061441   0.006480   0.008117  -0.000075  -0.000126   0.302354
    13  H    0.007763   0.000767  -0.058899   0.003872   0.000049  -0.000091
    14  H   -0.006920   0.001368  -0.000454   0.000188  -0.000999  -0.014756
    15  H    0.005379   0.000283  -0.000092  -0.000035   0.000180  -0.018488
    16  H   -0.010883   0.002220   0.000118   0.001088  -0.002272  -0.012973
    17  H   -0.007442  -0.000459   0.001446   0.000014  -0.000005  -0.014343
    18  H   -0.010704   0.000091   0.002081  -0.000066  -0.000008  -0.013082
    19  H    0.005457  -0.000092   0.000307   0.000010  -0.000009  -0.018568
               7          8          9         10         11         12
     1  C    0.014595  -0.057736  -0.070309   0.007757  -0.061056  -0.061441
     2  C   -0.060766   0.010322  -0.027648  -0.058900   0.007525   0.006480
     3  C    0.455729   0.432463  -0.027563   0.000772   0.006444   0.008117
     4  C   -0.056899  -0.000443   0.498058   0.432825   0.000939  -0.000075
     5  H   -0.000442   0.000022   0.005899  -0.006836   0.008699  -0.000126
     6  N    0.005721  -0.013094  -0.000324  -0.000091   0.302646   0.302354
     7  C    4.669458  -0.030627   0.497804   0.003872  -0.000073   0.000942
     8  H   -0.030627   0.578866   0.005906   0.000049  -0.000123   0.009116
     9  N    0.497804   0.005906   6.346314  -0.039721   0.000025   0.000027
    10  H    0.003872   0.000049  -0.039721   0.588284  -0.000039   0.000006
    11  C   -0.000073  -0.000123   0.000025  -0.000039   4.535607  -0.035530
    12  C    0.000942   0.009116   0.000027   0.000006  -0.035530   4.535405
    13  H    0.432833  -0.006846  -0.039702  -0.000274   0.000006  -0.000040
    14  H    0.000014  -0.000005  -0.000004   0.000001   0.400467  -0.001060
    15  H    0.000010  -0.000009   0.000001  -0.000000   0.403194  -0.004482
    16  H   -0.000068  -0.000010  -0.000017   0.000018   0.402241   0.003739
    17  H    0.000225  -0.001065  -0.000005  -0.000000  -0.000925   0.400315
    18  H    0.001054  -0.002333  -0.000017  -0.000000   0.003637   0.402131
    19  H   -0.000036   0.000183   0.000001  -0.000000  -0.004245   0.403323
              13         14         15         16         17         18
     1  C    0.007763  -0.006920   0.005379  -0.010883  -0.007442  -0.010704
     2  C    0.000767   0.001368   0.000283   0.002220  -0.000459   0.000091
     3  C   -0.058899  -0.000454  -0.000092   0.000118   0.001446   0.002081
     4  C    0.003872   0.000188  -0.000035   0.001088   0.000014  -0.000066
     5  H    0.000049  -0.000999   0.000180  -0.002272  -0.000005  -0.000008
     6  N   -0.000091  -0.014756  -0.018488  -0.012973  -0.014343  -0.013082
     7  C    0.432833   0.000014   0.000010  -0.000068   0.000225   0.001054
     8  H   -0.006846  -0.000005  -0.000009  -0.000010  -0.001065  -0.002333
     9  N   -0.039702  -0.000004   0.000001  -0.000017  -0.000005  -0.000017
    10  H   -0.000274   0.000001  -0.000000   0.000018  -0.000000  -0.000000
    11  C    0.000006   0.400467   0.403194   0.402241  -0.000925   0.003637
    12  C   -0.000040  -0.001060  -0.004482   0.003739   0.400315   0.402131
    13  H    0.588279  -0.000000  -0.000000  -0.000000   0.000002   0.000018
    14  H   -0.000000   0.514779  -0.014225  -0.016448  -0.000233   0.000092
    15  H   -0.000000  -0.014225   0.521480  -0.013199   0.000906   0.000322
    16  H   -0.000000  -0.016448  -0.013199   0.525608   0.000060  -0.000304
    17  H    0.000002  -0.000233   0.000906   0.000060   0.515106  -0.016524
    18  H    0.000018   0.000092   0.000322  -0.000304  -0.016524   0.525743
    19  H   -0.000000   0.000864  -0.000137   0.000349  -0.014186  -0.013193
              19
     1  C    0.005457
     2  C   -0.000092
     3  C    0.000307
     4  C    0.000010
     5  H   -0.000009
     6  N   -0.018568
     7  C   -0.000036
     8  H    0.000183
     9  N    0.000001
    10  H   -0.000000
    11  C   -0.004245
    12  C    0.403323
    13  H   -0.000000
    14  H    0.000864
    15  H   -0.000137
    16  H    0.000349
    17  H   -0.014186
    18  H   -0.013193
    19  H    0.521541
          Atomic-Atomic Spin Densities.
               1          2          3          4          5          6
     1  C   -0.134299   0.022261   0.022355   0.002251   0.000218  -0.056465
     2  C    0.022261   0.242711   0.008660  -0.009474   0.001426  -0.015167
     3  C    0.022355   0.008660   0.242479  -0.001165  -0.000107  -0.015167
     4  C    0.002251  -0.009474  -0.001165  -0.108617   0.000037   0.000188
     5  H    0.000218   0.001426  -0.000107   0.000037  -0.012399   0.000042
     6  N   -0.056465  -0.015167  -0.015167   0.000188   0.000042   0.782362
     7  C    0.002236  -0.001182  -0.009548   0.003834   0.000012   0.000181
     8  H    0.000224  -0.000104   0.001407   0.000011  -0.000002   0.000057
     9  N   -0.000874  -0.008135  -0.008182   0.004703  -0.000123   0.000059
    10  H   -0.000036  -0.000042   0.000001  -0.000091  -0.000017  -0.000002
    11  C    0.004165   0.001093  -0.000081  -0.000065  -0.000223  -0.032915
    12  C    0.004140  -0.000080   0.001114   0.000011  -0.000008  -0.032671
    13  H   -0.000034   0.000001  -0.000047  -0.000051  -0.000001  -0.000002
    14  H    0.000919   0.000721   0.000003  -0.000034   0.000127  -0.013628
    15  H    0.000025   0.000085   0.000035   0.000002  -0.000014  -0.002587
    16  H    0.000943   0.002073   0.000247   0.000039  -0.000048  -0.004688
    17  H    0.000878  -0.000002   0.000739   0.000004  -0.000002  -0.013506
    18  H    0.001037   0.000262   0.002149  -0.000013   0.000003  -0.005076
    19  H    0.000017   0.000032   0.000081  -0.000001   0.000002  -0.002291
               7          8          9         10         11         12
     1  C    0.002236   0.000224  -0.000874  -0.000036   0.004165   0.004140
     2  C   -0.001182  -0.000104  -0.008135  -0.000042   0.001093  -0.000080
     3  C   -0.009548   0.001407  -0.008182   0.000001  -0.000081   0.001114
     4  C    0.003834   0.000011   0.004703  -0.000091  -0.000065   0.000011
     5  H    0.000012  -0.000002  -0.000123  -0.000017  -0.000223  -0.000008
     6  N    0.000181   0.000057   0.000059  -0.000002  -0.032915  -0.032671
     7  C   -0.108635   0.000059   0.004830  -0.000052   0.000011  -0.000063
     8  H    0.000059  -0.012418  -0.000124  -0.000001  -0.000008  -0.000235
     9  N    0.004830  -0.000124   0.201792   0.000141  -0.000001  -0.000001
    10  H   -0.000052  -0.000001   0.000141   0.003867   0.000002  -0.000000
    11  C    0.000011  -0.000008  -0.000001   0.000002  -0.032347   0.002488
    12  C   -0.000063  -0.000235  -0.000001  -0.000000   0.002488  -0.032531
    13  H   -0.000082  -0.000018   0.000146  -0.000006  -0.000000   0.000002
    14  H    0.000003  -0.000002  -0.000001   0.000002   0.015640   0.000485
    15  H   -0.000001   0.000002  -0.000000  -0.000000   0.003409   0.000265
    16  H   -0.000012   0.000002  -0.000007  -0.000005   0.002736   0.000058
    17  H   -0.000033   0.000110  -0.000002  -0.000000   0.000476   0.015478
    18  H    0.000034  -0.000032  -0.000007   0.000000   0.000072   0.003007
    19  H    0.000002  -0.000012  -0.000000   0.000000   0.000243   0.003121
              13         14         15         16         17         18
     1  C   -0.000034   0.000919   0.000025   0.000943   0.000878   0.001037
     2  C    0.000001   0.000721   0.000085   0.002073  -0.000002   0.000262
     3  C   -0.000047   0.000003   0.000035   0.000247   0.000739   0.002149
     4  C   -0.000051  -0.000034   0.000002   0.000039   0.000004  -0.000013
     5  H   -0.000001   0.000127  -0.000014  -0.000048  -0.000002   0.000003
     6  N   -0.000002  -0.013628  -0.002587  -0.004688  -0.013506  -0.005076
     7  C   -0.000082   0.000003  -0.000001  -0.000012  -0.000033   0.000034
     8  H   -0.000018  -0.000002   0.000002   0.000002   0.000110  -0.000032
     9  N    0.000146  -0.000001  -0.000000  -0.000007  -0.000002  -0.000007
    10  H   -0.000006   0.000002  -0.000000  -0.000005  -0.000000   0.000000
    11  C   -0.000000   0.015640   0.003409   0.002736   0.000476   0.000072
    12  C    0.000002   0.000485   0.000265   0.000058   0.015478   0.003007
    13  H    0.003824  -0.000000   0.000000   0.000000   0.000002  -0.000004
    14  H   -0.000000   0.057131  -0.004884  -0.006487  -0.000357   0.000322
    15  H    0.000000  -0.004884   0.013469   0.002794   0.000871  -0.000186
    16  H    0.000000  -0.006487   0.002794   0.019064   0.000297  -0.000076
    17  H    0.000002  -0.000357   0.000871   0.000297   0.056882  -0.006695
    18  H   -0.000004   0.000322  -0.000186  -0.000076  -0.006695   0.020457
    19  H   -0.000000   0.000852  -0.001127  -0.000171  -0.004622   0.002735
              19
     1  C    0.000017
     2  C    0.000032
     3  C    0.000081
     4  C   -0.000001
     5  H    0.000002
     6  N   -0.002291
     7  C    0.000002
     8  H   -0.000012
     9  N   -0.000000
    10  H    0.000000
    11  C    0.000243
    12  C    0.003121
    13  H   -0.000000
    14  H    0.000852
    15  H   -0.001127
    16  H   -0.000171
    17  H   -0.004622
    18  H    0.002735
    19  H    0.012125
 Mulliken charges and spin densities:
               1          2
     1  C    0.156445  -0.130039
     2  C   -0.015450   0.245139
     3  C   -0.015673   0.244972
     4  C    0.066321  -0.108430
     5  H    0.075664  -0.011078
     6  N   -0.220083   0.588723
     7  C    0.066653  -0.108407
     8  H    0.075365  -0.011083
     9  N   -0.148724   0.194215
    10  H    0.072276   0.003762
    11  C    0.030560  -0.035303
    12  C    0.030799  -0.035419
    13  H    0.072264   0.003729
    14  H    0.137330   0.050811
    15  H    0.118912   0.012157
    16  H    0.120733   0.016761
    17  H    0.137113   0.050516
    18  H    0.121063   0.017988
    19  H    0.118432   0.010986
 Sum of Mulliken charges =   1.00000   1.00000
 Mulliken charges and spin densities with hydrogens summed into heavy atoms:
               1          2
     1  C    0.156445  -0.130039
     2  C    0.060214   0.234061
     3  C    0.059692   0.233889
     4  C    0.138597  -0.104667
     6  N   -0.220083   0.588723
     7  C    0.138917  -0.104678
     9  N   -0.148724   0.194215
    11  C    0.407536   0.044425
    12  C    0.407407   0.044071
 Electronic spatial extent (au):  <R**2>=           1213.0417
 Charge=              1.0000 electrons
 Dipole moment (field-independent basis, Debye):
    X=             -7.5194    Y=              0.0023    Z=              0.0060  Tot=              7.5194
 Quadrupole moment (field-independent basis, Debye-Ang):
   XX=            -35.9565   YY=            -35.1893   ZZ=            -52.1357
   XY=              0.0057   XZ=              0.0115   YZ=             -0.5560
 Traceless Quadrupole moment (field-independent basis, Debye-Ang):
   XX=              5.1373   YY=              5.9045   ZZ=            -11.0419
   XY=              0.0057   XZ=              0.0115   YZ=             -0.5560
 Octapole moment (field-independent basis, Debye-Ang**2):
  XXX=            -78.9187  YYY=              0.0220  ZZZ=              0.0379  XYY=             -4.6222
  XXY=             -0.0656  XXZ=              0.0312  XZZ=             -7.9101  YZZ=              0.0242
  YYZ=             -0.0099  XYZ=             -2.2466
 Hexadecapole moment (field-independent basis, Debye-Ang**3):
 XXXX=          -1024.4613 YYYY=           -355.4285 ZZZZ=            -69.8916 XXXY=              0.2299
 XXXZ=              0.2551 YYYX=             -0.0502 YYYZ=             -4.4466 ZZZX=             -0.0635
 ZZZY=              0.8921 XXYY=           -184.9554 XXZZ=           -189.5503 YYZZ=            -78.8410
 XXYZ=             -2.2923 YYXZ=             -0.0051 ZZXY=              0.0187
 N-N= 4.358129176507D+02 E-N=-1.742591817211D+03  KE= 3.778731375410D+02
                          Isotropic Fermi Contact Couplings
        Atom                 a.u.       MegaHertz       Gauss      10(-4) cm-1
     1  C(13)             -0.05171     -58.13389     -20.74362     -19.39138
     2  C(13)              0.03494      39.28054      14.01627      13.10258
     3  C(13)              0.03487      39.20260      13.98846      13.07658
     4  C(13)             -0.02790     -31.36250     -11.19092     -10.46140
     5  H(1)              -0.00350     -15.64591      -5.58285      -5.21891
     6  N(14)              0.17721      57.25666      20.43060      19.09877
     7  C(13)             -0.02789     -31.34819     -11.18581     -10.45663
     8  H(1)              -0.00350     -15.63706      -5.57969      -5.21596
     9  N(14)              0.04134      13.35818       4.76653       4.45581
    10  H(1)               0.00110       4.93201       1.75986       1.64514
    11  C(13)             -0.02635     -29.62557     -10.57114      -9.88203
    12  C(13)             -0.02638     -29.65986     -10.58338      -9.89346
    13  H(1)               0.00109       4.86331       1.73535       1.62222
    14  H(1)               0.02361     105.52344      37.65339      35.19883
    15  H(1)               0.00581      25.95781       9.26239       8.65859
    16  H(1)               0.00680      30.39937      10.84725      10.14014
    17  H(1)               0.02345     104.83517      37.40780      34.96925
    18  H(1)               0.00734      32.79296      11.70134      10.93855
    19  H(1)               0.00525      23.45371       8.36887       7.82332
 --------------------------------------------------------
       Center         ----  Spin Dipole Couplings  ----
                      3XX-RR        3YY-RR        3ZZ-RR
 --------------------------------------------------------
     1   Atom        0.058989      0.024130     -0.083120
     2   Atom       -0.106462     -0.093147      0.199609
     3   Atom       -0.106498     -0.093037      0.199535
     4   Atom        0.047844      0.041985     -0.089829
     5   Atom       -0.008877      0.014499     -0.005623
     6   Atom       -0.704115     -0.637208      1.341323
     7   Atom        0.047769      0.042065     -0.089835
     8   Atom       -0.008836      0.014428     -0.005592
     9   Atom       -0.182323     -0.193017      0.375340
    10   Atom        0.003511      0.000266     -0.003777
    11   Atom       -0.013284     -0.000296      0.013580
    12   Atom       -0.013102     -0.000159      0.013261
    13   Atom        0.003517      0.000259     -0.003776
    14   Atom       -0.003943      0.005401     -0.001457
    15   Atom        0.009978     -0.003210     -0.006768
    16   Atom       -0.002926      0.008184     -0.005258
    17   Atom       -0.004143      0.005827     -0.001685
    18   Atom       -0.002892      0.008005     -0.005113
    19   Atom        0.009910     -0.003157     -0.006753
 --------------------------------------------------------
                        XY            XZ            YZ
 --------------------------------------------------------
     1   Atom       -0.000030      0.000115     -0.023627
     2   Atom       -0.006647     -0.019806      0.060434
     3   Atom        0.006263      0.018019      0.060189
     4   Atom        0.004957     -0.001158     -0.012739
     5   Atom        0.007269     -0.001532     -0.001746
     6   Atom       -0.000287      0.001573     -0.342418
     7   Atom       -0.004967      0.001143     -0.012451
     8   Atom       -0.007253      0.001523     -0.001812
     9   Atom        0.000278      0.003905      0.039976
    10   Atom        0.002828     -0.000345     -0.000494
    11   Atom        0.010836      0.008118     -0.006102
    12   Atom       -0.010819     -0.008053     -0.005902
    13   Atom       -0.002832      0.000330     -0.000484
    14   Atom        0.007860     -0.003896     -0.007978
    15   Atom        0.006801      0.004258      0.002752
    16   Atom        0.001156      0.001271      0.007588
    17   Atom       -0.007624      0.003513     -0.008071
    18   Atom       -0.001183     -0.001250      0.007806
    19   Atom       -0.006928     -0.003981      0.002691
 --------------------------------------------------------


 ---------------------------------------------------------------------------------
              Anisotropic Spin Dipole Couplings in Principal Axis System
 ---------------------------------------------------------------------------------

       Atom             a.u.   MegaHertz   Gauss  10(-4) cm-1        Axes

              Baa    -0.0881   -11.821    -4.218    -3.943 -0.0007  0.2060  0.9785
     1 C(13)  Bbb     0.0291     3.906     1.394     1.303  0.0018  0.9785 -0.2060
              Bcc     0.0590     7.916     2.825     2.640  1.0000 -0.0016  0.0011
 
              Baa    -0.1094   -14.687    -5.241    -4.899  0.8494  0.5256 -0.0483
     2 C(13)  Bbb    -0.1035   -13.887    -4.955    -4.632 -0.5238  0.8282 -0.1994
              Bcc     0.2129    28.574    10.196     9.531 -0.0647  0.1946  0.9787
 
              Baa    -0.1092   -14.659    -5.231    -4.890  0.8506 -0.5232  0.0524
     3 C(13)  Bbb    -0.1033   -13.863    -4.947    -4.624  0.5225  0.8298 -0.1960
              Bcc     0.2126    28.522    10.178     9.514  0.0591  0.1941  0.9792
 
              Baa    -0.0911   -12.218    -4.360    -4.076  0.0049  0.0951  0.9955
     4 C(13)  Bbb     0.0400     5.364     1.914     1.789 -0.5394  0.8385 -0.0775
              Bcc     0.0511     6.854     2.446     2.286  0.8420  0.5366 -0.0554
 
              Baa    -0.0111    -5.942    -2.120    -1.982  0.9491 -0.2567  0.1825
     5 H(1)   Bbb    -0.0056    -3.007    -1.073    -1.003 -0.1505  0.1392  0.9788
              Bcc     0.0168     8.949     3.193     2.985  0.2766  0.9564 -0.0935
 
              Baa    -0.7041   -27.156    -9.690    -9.058  1.0000  0.0025 -0.0004
     6 N(14)  Bbb    -0.6948   -26.797    -9.562    -8.938 -0.0024  0.9861  0.1658
              Bcc     1.3989    53.953    19.252    17.997  0.0008 -0.1658  0.9862
 
              Baa    -0.0910   -12.212    -4.357    -4.073 -0.0049  0.0930  0.9957
     7 C(13)  Bbb     0.0400     5.363     1.914     1.789  0.5431  0.8363 -0.0754
              Bcc     0.0510     6.849     2.444     2.285  0.8396 -0.5404  0.0546
 
              Baa    -0.0111    -5.916    -2.111    -1.973  0.9497  0.2573 -0.1783
     8 H(1)   Bbb    -0.0056    -3.002    -1.071    -1.001  0.1456  0.1412  0.9792
              Bcc     0.0167     8.918     3.182     2.975 -0.2771  0.9560 -0.0966
 
              Baa    -0.1958    -7.552    -2.695    -2.519 -0.0003  0.9976 -0.0698
     9 N(14)  Bbb    -0.1824    -7.033    -2.509    -2.346  1.0000 -0.0001 -0.0070
              Bcc     0.3782    14.585     5.204     4.865  0.0070  0.0698  0.9975
 
              Baa    -0.0038    -2.047    -0.730    -0.683  0.0008  0.1190  0.9929
    10 H(1)   Bbb    -0.0013    -0.718    -0.256    -0.239 -0.5059  0.8565 -0.1022
              Bcc     0.0052     2.765     0.987     0.922  0.8626  0.5022 -0.0609
 
              Baa    -0.0223    -2.987    -1.066    -0.996  0.8312 -0.4854 -0.2709
    11 C(13)  Bbb     0.0057     0.765     0.273     0.255  0.5275  0.8425  0.1090
              Bcc     0.0166     2.222     0.793     0.741  0.1754 -0.2335  0.9564
 
              Baa    -0.0220    -2.956    -1.055    -0.986  0.8317  0.4846  0.2709
    12 C(13)  Bbb     0.0059     0.786     0.280     0.262 -0.5254  0.8447  0.1020
              Bcc     0.0162     2.170     0.774     0.724 -0.1794 -0.2271  0.9572
 
              Baa    -0.0038    -2.045    -0.730    -0.682  0.0009  0.1180  0.9930
    13 H(1)   Bbb    -0.0014    -0.722    -0.258    -0.241  0.5052  0.8569 -0.1023
              Bcc     0.0052     2.767     0.987     0.923  0.8630 -0.5017  0.0589
 
              Baa    -0.0085    -4.549    -1.623    -1.517  0.8022 -0.5643 -0.1948
    14 H(1)   Bbb    -0.0062    -3.309    -1.181    -1.104  0.4207  0.3030  0.8551
              Bcc     0.0147     7.858     2.804     2.621  0.4235  0.7679 -0.4805
 
              Baa    -0.0083    -4.426    -1.579    -1.476 -0.0570 -0.4152  0.9079
    15 H(1)   Bbb    -0.0058    -3.075    -1.097    -1.026 -0.4496  0.8227  0.3480
              Bcc     0.0141     7.500     2.676     2.502  0.8914  0.3884  0.2336
 
              Baa    -0.0088    -4.671    -1.667    -1.558 -0.1190 -0.3991  0.9091
    16 H(1)   Bbb    -0.0030    -1.608    -0.574    -0.536  0.9871 -0.1461  0.0651
              Bcc     0.0118     6.279     2.241     2.095  0.1068  0.9052  0.4114
 
              Baa    -0.0085    -4.525    -1.615    -1.509  0.7768  0.5677  0.2727
    17 H(1)   Bbb    -0.0062    -3.299    -1.177    -1.100 -0.4819  0.2571  0.8377
              Bcc     0.0147     7.824     2.792     2.610 -0.4055  0.7821 -0.4732
 
              Baa    -0.0088    -4.705    -1.679    -1.570  0.1085 -0.4121  0.9046
    18 H(1)   Bbb    -0.0030    -1.599    -0.571    -0.533  0.9882  0.1439 -0.0530
              Bcc     0.0118     6.305     2.250     2.103 -0.1083  0.8997  0.4229
 
              Baa    -0.0082    -4.374    -1.561    -1.459  0.0296 -0.4387  0.8982
    19 H(1)   Bbb    -0.0058    -3.083    -1.100    -1.028  0.4526  0.8070  0.3792
              Bcc     0.0140     7.457     2.661     2.487  0.8912 -0.3953 -0.2225
 

 ---------------------------------------------------------------------------------

 No NMR shielding tensors so no spin-rotation constants.
 Leave Link  601 at Thu Jan 22 16:29:01 2026, MaxMem=  1610612736 cpu:               1.6 elap:               0.3
 (Enter /leonardo/prod/opt/applications/g16/c02/binary/g16/l701.exe)
 ... and contract with generalized density number  0.
 Compute integral first derivatives.
 R6Disp: Adding Grimme-D3 dispersion energy 1st derivatives to the gradient.
   1 Symmetry operations used in ECPInt.
 ECPInt:  NShTT=    3570 NPrTT=   12708 LenC2=    3537 LenP2D=   10047.
 LDataN:  DoStor=T MaxTD1= 5 Len=  102
 D1PCM: PCM CHGder 1st derivatives, ID1Alg=3 FixD1E=F DoIter=F DoCFld=F I1PDM=0.
 GePol: Maximum number of non-zero 1st derivatives   =     191
 Leave Link  701 at Thu Jan 22 16:29:02 2026, MaxMem=  1610612736 cpu:               6.8 elap:               0.9
 (Enter /leonardo/prod/opt/applications/g16/c02/binary/g16/l702.exe)
 L702 exits ... SP integral derivatives will be done elsewhere.
 Leave Link  702 at Thu Jan 22 16:29:03 2026, MaxMem=  1610612736 cpu:               0.1 elap:               0.1
 (Enter /leonardo/prod/opt/applications/g16/c02/binary/g16/l703.exe)
 Integral derivatives from FoFJK, PRISM(SPDF).
 Compute integral first derivatives, UseDBF=F ICtDFT=           0.
 Calling FoFJK, ICntrl=      2127 FMM=F ISym2X=0 I1Cent= 0 IOpClX= 1 NMat=1 NMatS=1 NMatT=0.
 FoFJK:  IHMeth= 1 ICntrl=    2127 DoSepK=F KAlg= 0 I1Cent=           0 FoldK=F
 IRaf=         0 NMat=       1 IRICut=       1 DoRegI=T DoRafI=F ISym2E= 0 IDoP0=0 IntGTp=1.
 FoFCou: FMM=F IPFlag=           0 FMFlag=      100000 FMFlg1=         800
         NFxFlg=           0 DoJE=F BraDBF=F KetDBF=F FulRan=T
         wScrn=  0.000000 ICntrl=      2127 IOpCl=  1 I1Cent=           0 NGrid=           0
         NMat0=    1 NMatS0=      1 NMatT0=    0 NMatD0=    1 NMtDS0=    0 NMtDT0=    0
 Symmetry not used in FoFCou.
 Leave Link  703 at Thu Jan 22 16:29:05 2026, MaxMem=  1610612736 cpu:              19.8 elap:               1.8
 (Enter /leonardo/prod/opt/applications/g16/c02/binary/g16/l716.exe)
 Dipole        =-2.95834282D+00 8.89603989D-04 2.36990575D-03
 ***** Axes restored to original set *****
 -------------------------------------------------------------------
 Center     Atomic                   Forces (Hartrees/Bohr)
 Number     Number              X              Y              Z
 -------------------------------------------------------------------
      1        6          -0.001070008   -0.012272353    0.000328268
      2        6          -0.000476804    0.003297369    0.002657804
      3        6           0.001056169    0.002928099   -0.002831091
      4        6           0.000607134    0.006681143    0.000385599
      5        1           0.000658317    0.005413920    0.008021987
      6        7          -0.000629143   -0.006153095    0.000088099
      7        6           0.000339736    0.006840578   -0.000679780
      8        1           0.000454164    0.005032304   -0.008314128
      9        7          -0.002045625   -0.023116973    0.000553342
     10        1           0.000391871   -0.001834960    0.009309600
     11        6          -0.003252306    0.008537917    0.014764086
     12        6           0.004854570    0.006994154   -0.015179822
     13        1          -0.000782980   -0.002259482   -0.009169857
[...]
    15  H   -0.000000  -0.014165   0.519666  -0.013351   0.000796   0.000293
    16  H   -0.000000  -0.016150  -0.013351   0.521857   0.000050  -0.000268
    17  H    0.000001  -0.000198   0.000796   0.000050   0.510976  -0.016149
    18  H    0.000016   0.000049   0.000293  -0.000268  -0.016149   0.521858
    19  H   -0.000000   0.000796   0.000352   0.000293  -0.014165  -0.013351
              19
     1  C    0.005199
     2  C   -0.000110
     3  C    0.000327
     4  C    0.000009
     5  H   -0.000006
     6  N   -0.018826
     7  C   -0.000036
     8  H    0.000180
     9  N    0.000001
    10  H   -0.000000
    11  C   -0.004207
    12  C    0.403271
    13  H   -0.000000
    14  H    0.000796
    15  H    0.000352
    16  H    0.000293
    17  H   -0.014165
    18  H   -0.013351
    19  H    0.519666
          Atomic-Atomic Spin Densities.
               1          2          3          4          5          6
     1  C   -0.140247   0.022158   0.022157   0.002498   0.000176  -0.056436
     2  C    0.022158   0.250994   0.008916  -0.009387   0.001350  -0.015276
     3  C    0.022157   0.008916   0.251009  -0.001154  -0.000080  -0.015277
     4  C    0.002498  -0.009387  -0.001154  -0.117077  -0.000043   0.000162
     5  H    0.000176   0.001350  -0.000080  -0.000043  -0.012560   0.000017
     6  N   -0.056436  -0.015276  -0.015277   0.000162   0.000017   0.782597
     7  C    0.002498  -0.001153  -0.009386   0.003777   0.000009   0.000162
     8  H    0.000176  -0.000080   0.001350   0.000009  -0.000002   0.000017
     9  N   -0.000911  -0.008080  -0.008080   0.004526  -0.000109   0.000054
    10  H   -0.000042  -0.000099   0.000015   0.000029  -0.000018  -0.000001
    11  C    0.003807   0.001125  -0.000039  -0.000049  -0.000152  -0.030326
    12  C    0.003807  -0.000039   0.001125   0.000010  -0.000008  -0.030329
    13  H   -0.000042   0.000015  -0.000099  -0.000067  -0.000001  -0.000001
    14  H    0.000947   0.000931   0.000042  -0.000031   0.000178  -0.012908
    15  H   -0.000002   0.000061   0.000020   0.000001  -0.000018  -0.001846
    16  H    0.000790   0.001975   0.000182   0.000039  -0.000112  -0.004816
    17  H    0.000947   0.000042   0.000931   0.000002  -0.000003  -0.012908
    18  H    0.000789   0.000182   0.001974  -0.000009   0.000003  -0.004813
    19  H   -0.000002   0.000020   0.000061  -0.000001   0.000002  -0.001849
               7          8          9         10         11         12
     1  C    0.002498   0.000176  -0.000911  -0.000042   0.003807   0.003807
     2  C   -0.001153  -0.000080  -0.008080  -0.000099   0.001125  -0.000039
     3  C   -0.009386   0.001350  -0.008080   0.000015  -0.000039   0.001125
     4  C    0.003777   0.000009   0.004526   0.000029  -0.000049   0.000010
     5  H    0.000009  -0.000002  -0.000109  -0.000018  -0.000152  -0.000008
     6  N    0.000162   0.000017   0.000054  -0.000001  -0.030326  -0.030329
     7  C   -0.117078  -0.000043   0.004525  -0.000067   0.000010  -0.000049
     8  H   -0.000043  -0.012561  -0.000109  -0.000001  -0.000008  -0.000151
     9  N    0.004525  -0.000109   0.219751   0.000148  -0.000001  -0.000001
    10  H   -0.000067  -0.000001   0.000148   0.004020   0.000001  -0.000000
    11  C    0.000010  -0.000008  -0.000001   0.000001  -0.031859   0.002170
    12  C   -0.000049  -0.000151  -0.000001  -0.000000   0.002170  -0.031857
    13  H    0.000029  -0.000018   0.000148  -0.000005  -0.000000   0.000001
    14  H    0.000002  -0.000003  -0.000002   0.000001   0.013866   0.000408
    15  H   -0.000001   0.000002  -0.000000  -0.000000   0.002586   0.000172
    16  H   -0.000009   0.000003  -0.000006  -0.000003   0.002739   0.000043
    17  H   -0.000031   0.000179  -0.000002  -0.000000   0.000408   0.013869
    18  H    0.000039  -0.000112  -0.000006   0.000000   0.000043   0.002736
    19  H    0.000001  -0.000018  -0.000000   0.000000   0.000172   0.002589
              13         14         15         16         17         18
     1  C   -0.000042   0.000947  -0.000002   0.000790   0.000947   0.000789
     2  C    0.000015   0.000931   0.000061   0.001975   0.000042   0.000182
     3  C   -0.000099   0.000042   0.000020   0.000182   0.000931   0.001974
     4  C   -0.000067  -0.000031   0.000001   0.000039   0.000002  -0.000009
     5  H   -0.000001   0.000178  -0.000018  -0.000112  -0.000003   0.000003
     6  N   -0.000001  -0.012908  -0.001846  -0.004816  -0.012908  -0.004813
     7  C    0.000029   0.000002  -0.000001  -0.000009  -0.000031   0.000039
     8  H   -0.000018  -0.000003   0.000002   0.000003   0.000179  -0.000112
     9  N    0.000148  -0.000002  -0.000000  -0.000006  -0.000002  -0.000006
    10  H   -0.000005   0.000001  -0.000000  -0.000003  -0.000000   0.000000
    11  C   -0.000000   0.013866   0.002586   0.002739   0.000408   0.000043
    12  C    0.000001   0.000408   0.000172   0.000043   0.013869   0.002736
    13  H    0.004020  -0.000000   0.000000   0.000000   0.000001  -0.000003
    14  H   -0.000000   0.050337  -0.003641  -0.006057  -0.000297   0.000291
    15  H    0.000000  -0.003641   0.009454   0.002293   0.000641  -0.000149
    16  H    0.000000  -0.006057   0.002293   0.019839   0.000291  -0.000073
    17  H    0.000001  -0.000297   0.000641   0.000291   0.050342  -0.006055
    18  H   -0.000003   0.000291  -0.000149  -0.000073  -0.006055   0.019828
    19  H   -0.000000   0.000641  -0.000823  -0.000149  -0.003643   0.002294
              19
     1  C   -0.000002
     2  C    0.000020
     3  C    0.000061
     4  C   -0.000001
     5  H    0.000002
     6  N   -0.001849
     7  C    0.000001
     8  H   -0.000018
     9  N   -0.000000
    10  H    0.000000
    11  C    0.000172
    12  C    0.002589
    13  H   -0.000000
    14  H    0.000641
    15  H   -0.000823
    16  H   -0.000149
    17  H   -0.003643
    18  H    0.002294
    19  H    0.009466
 Mulliken charges and spin densities:
               1          2
     1  C    0.157028  -0.136930
     2  C   -0.018338   0.253655
     3  C   -0.018345   0.253669
     4  C    0.062483  -0.116763
     5  H    0.085209  -0.011370
     6  N   -0.247676   0.596224
     7  C    0.062480  -0.116765
     8  H    0.085213  -0.011371
     9  N   -0.159961   0.211846
    10  H    0.081030   0.003978
    11  C    0.027942  -0.035507
    12  C    0.027937  -0.035506
    13  H    0.081029   0.003978
    14  H    0.140660   0.044707
    15  H    0.120602   0.008751
    16  H    0.125721   0.016969
    17  H    0.140663   0.044712
    18  H    0.125718   0.016960
    19  H    0.120606   0.008761
 Sum of Mulliken charges =   1.00000   1.00000
 Mulliken charges and spin densities with hydrogens summed into heavy atoms:
               1          2
     1  C    0.157028  -0.136930
     2  C    0.066871   0.242285
     3  C    0.066868   0.242298
     4  C    0.143512  -0.112785
     6  N   -0.247676   0.596224
     7  C    0.143509  -0.112787
     9  N   -0.159961   0.211846
    11  C    0.414926   0.034921
    12  C    0.414925   0.034927
 Electronic spatial extent (au):  <R**2>=           1228.3224
 Charge=              1.0000 electrons
 Dipole moment (field-independent basis, Debye):
    X=             -7.5543    Y=              0.0000    Z=              0.0000  Tot=              7.5543
 Quadrupole moment (field-independent basis, Debye-Ang):
   XX=            -36.4525   YY=            -34.7763   ZZ=            -52.3888
   XY=             -0.0000   XZ=              0.0001   YZ=             -0.4237
 Traceless Quadrupole moment (field-independent basis, Debye-Ang):
   XX=              4.7534   YY=              6.4296   ZZ=            -11.1829
   XY=             -0.0000   XZ=              0.0001   YZ=             -0.4237
 Octapole moment (field-independent basis, Debye-Ang**2):
  XXX=            -80.7389  YYY=              0.0003  ZZZ=             -0.0004  XYY=             -4.2299
  XXY=              0.0003  XXZ=              0.0003  XZZ=             -8.2147  YZZ=             -0.0004
  YYZ=              0.0003  XYZ=             -1.2846
 Hexadecapole moment (field-independent basis, Debye-Ang**3):
 XXXX=          -1044.7301 YYYY=           -362.6840 ZZZZ=            -66.9779 XXXY=             -0.0017
 XXXZ=             -0.0002 YYYX=              0.0003 YYYZ=             -2.3395 ZZZX=              0.0008
 ZZZY=             -0.3806 XXYY=           -189.4066 XXZZ=           -192.1819 YYZZ=            -80.8064
 XXYZ=             -2.4886 YYXZ=              0.0007 ZZXY=              0.0000
 N-N= 4.324350105091D+02 E-N=-1.735657113596D+03  KE= 3.775186795511D+02
                          Isotropic Fermi Contact Couplings
        Atom                 a.u.       MegaHertz       Gauss      10(-4) cm-1
     1  C(13)             -0.05292     -59.48779     -21.22672     -19.84299
     2  C(13)              0.03569      40.12503      14.31761      13.38427
     3  C(13)              0.03570      40.12832      14.31878      13.38537
     4  C(13)             -0.03051     -34.30190     -12.23977     -11.44188
     5  H(1)              -0.00364     -16.27705      -5.80806      -5.42944
     6  N(14)              0.18209      58.83262      20.99294      19.62445
     7  C(13)             -0.03051     -34.30242     -12.23996     -11.44206
     8  H(1)              -0.00364     -16.27774      -5.80830      -5.42967
     9  N(14)              0.04484      14.48739       5.16946       4.83247
    10  H(1)               0.00115       5.13258       1.83143       1.71204
    11  C(13)             -0.02455     -27.60186      -9.84903      -9.20699
    12  C(13)             -0.02455     -27.60246      -9.84924      -9.20719
    13  H(1)               0.00115       5.13249       1.83140       1.71201
    14  H(1)               0.02072      92.59567      33.04044      30.88659
    15  H(1)               0.00416      18.59548       6.63533       6.20278
    16  H(1)               0.00699      31.26590      11.15645      10.42918
    17  H(1)               0.02072      92.60689      33.04444      30.89033
    18  H(1)               0.00699      31.24622      11.14943      10.42262
    19  H(1)               0.00417      18.61734       6.64313       6.21007
 --------------------------------------------------------
       Center         ----  Spin Dipole Couplings  ----
                      3XX-RR        3YY-RR        3ZZ-RR
 --------------------------------------------------------
     1   Atom        0.060686      0.027465     -0.088151
     2   Atom       -0.110538     -0.104231      0.214769
     3   Atom       -0.110545     -0.104241      0.214786
     4   Atom        0.051213      0.045647     -0.096860
     5   Atom       -0.008980      0.014712     -0.005733
     6   Atom       -0.703960     -0.664508      1.368468
     7   Atom        0.051214      0.045648     -0.096862
     8   Atom       -0.008981      0.014714     -0.005733
     9   Atom       -0.198618     -0.210049      0.408668
    10   Atom        0.003926     -0.000126     -0.003800
    11   Atom       -0.011957     -0.001740      0.013697
    12   Atom       -0.011960     -0.001741      0.013700
    13   Atom        0.003926     -0.000126     -0.003800
    14   Atom       -0.003967      0.004970     -0.001003
    15   Atom        0.009675     -0.002889     -0.006787
    16   Atom       -0.003009      0.008795     -0.005786
    17   Atom       -0.003966      0.004967     -0.001001
    18   Atom       -0.003009      0.008796     -0.005788
    19   Atom        0.009676     -0.002889     -0.006787
 --------------------------------------------------------
                        XY            XZ            YZ
 --------------------------------------------------------
     1   Atom        0.000000      0.000001     -0.015632
     2   Atom       -0.004031     -0.015214      0.037944
     3   Atom        0.004031      0.015219      0.037938
     4   Atom        0.005900     -0.000147     -0.009427
     5   Atom        0.007764     -0.000898     -0.000861
     6   Atom        0.000002     -0.000010     -0.236120
     7   Atom       -0.005900      0.000145     -0.009425
     8   Atom       -0.007765      0.000898     -0.000860
     9   Atom        0.000001      0.000008      0.032932
    10   Atom        0.003129     -0.000243     -0.000275
    11   Atom        0.009614      0.006172     -0.004746
    12   Atom       -0.009615     -0.006173     -0.004746
    13   Atom       -0.003129      0.000243     -0.000275
    14   Atom        0.007309     -0.003667     -0.008033
    15   Atom        0.007500      0.003430      0.002396
    16   Atom        0.001768      0.001303      0.007023
    17   Atom       -0.007311      0.003670     -0.008032
    18   Atom       -0.001767     -0.001303      0.007021
    19   Atom       -0.007499     -0.003433      0.002397
 --------------------------------------------------------


 ---------------------------------------------------------------------------------
              Anisotropic Spin Dipole Couplings in Principal Axis System
 ---------------------------------------------------------------------------------

       Atom             a.u.   MegaHertz   Gauss  10(-4) cm-1        Axes

              Baa    -0.0902   -12.108    -4.320    -4.039 -0.0000  0.1317  0.9913
     1 C(13)  Bbb     0.0295     3.964     1.415     1.322 -0.0000  0.9913 -0.1317
              Bcc     0.0607     8.143     2.906     2.716  1.0000  0.0000  0.0000
 
              Baa    -0.1126   -15.104    -5.389    -5.038  0.8657  0.5002 -0.0177
     2 C(13)  Bbb    -0.1074   -14.412    -5.143    -4.807 -0.4983  0.8580 -0.1246
              Bcc     0.2200    29.516    10.532     9.845 -0.0471  0.1167  0.9921
 
              Baa    -0.1126   -15.105    -5.390    -5.038  0.8657 -0.5002  0.0177
     3 C(13)  Bbb    -0.1074   -14.413    -5.143    -4.808  0.4983  0.8580 -0.1246
              Bcc     0.2200    29.518    10.533     9.846  0.0471  0.1167  0.9921
 
              Baa    -0.0975   -13.081    -4.668    -4.363 -0.0016  0.0658  0.9978
     4 C(13)  Bbb     0.0423     5.683     2.028     1.895 -0.5538  0.8308 -0.0557
              Bcc     0.0551     7.399     2.640     2.468  0.8327  0.5527 -0.0351
 
              Baa    -0.0114    -6.064    -2.164    -2.023  0.9537 -0.2803  0.1092
     5 H(1)   Bbb    -0.0057    -3.050    -1.088    -1.017 -0.0912  0.0765  0.9929
              Bcc     0.0171     9.114     3.252     3.040  0.2867  0.9568 -0.0474
 
              Baa    -0.7040   -27.150    -9.688    -9.056  1.0000 -0.0001 -0.0000
     6 N(14)  Bbb    -0.6916   -26.672    -9.517    -8.897  0.0001  0.9935  0.1139
              Bcc     1.3955    53.823    19.205    17.953 -0.0000 -0.1139  0.9935
 
              Baa    -0.0975   -13.081    -4.668    -4.363  0.0016  0.0658  0.9978
     7 C(13)  Bbb     0.0423     5.683     2.028     1.895  0.5538  0.8308 -0.0557
              Bcc     0.0551     7.399     2.640     2.468  0.8327 -0.5527  0.0351
 
              Baa    -0.0114    -6.064    -2.164    -2.023  0.9537  0.2804 -0.1092
     8 H(1)   Bbb    -0.0057    -3.050    -1.088    -1.017  0.0912  0.0764  0.9929
              Bcc     0.0171     9.115     3.252     3.040 -0.2867  0.9568 -0.0473
 
              Baa    -0.2118    -8.169    -2.915    -2.725 -0.0000  0.9986 -0.0530
     9 N(14)  Bbb    -0.1986    -7.660    -2.733    -2.555  1.0000  0.0000 -0.0000
              Bcc     0.4104    15.829     5.648     5.280  0.0000  0.0530  0.9986
 
              Baa    -0.0038    -2.039    -0.727    -0.680  0.0021  0.0725  0.9974
    10 H(1)   Bbb    -0.0018    -0.971    -0.346    -0.324 -0.4794  0.8754 -0.0626
              Bcc     0.0056     3.009     1.074     1.004  0.8776  0.4780 -0.0365
 
              Baa    -0.0195    -2.622    -0.936    -0.875  0.8303 -0.5090 -0.2269
    11 C(13)  Bbb     0.0040     0.533     0.190     0.178  0.5354  0.8416  0.0710
              Bcc     0.0156     2.088     0.745     0.697  0.1548 -0.1804  0.9713
 
              Baa    -0.0195    -2.622    -0.936    -0.875  0.8303  0.5090  0.2269
    12 C(13)  Bbb     0.0040     0.533     0.190     0.178 -0.5353  0.8417  0.0709
              Bcc     0.0156     2.089     0.745     0.697 -0.1548 -0.1804  0.9713
 
              Baa    -0.0038    -2.039    -0.727    -0.680 -0.0021  0.0724  0.9974
    13 H(1)   Bbb    -0.0018    -0.971    -0.346    -0.324  0.4793  0.8754 -0.0626
              Bcc     0.0056     3.009     1.074     1.004  0.8776 -0.4779  0.0365
 
              Baa    -0.0083    -4.405    -1.572    -1.469  0.7743 -0.5806 -0.2516
    14 H(1)   Bbb    -0.0059    -3.159    -1.127    -1.054  0.4833  0.2859  0.8274
              Bcc     0.0142     7.564     2.699     2.523  0.4085  0.7623 -0.5020
 
              Baa    -0.0079    -4.230    -1.509    -1.411  0.0187 -0.4518  0.8919
    15 H(1)   Bbb    -0.0061    -3.237    -1.155    -1.080 -0.4636  0.7864  0.4081
              Bcc     0.0140     7.467     2.664     2.491  0.8858  0.4211  0.1948
 
              Baa    -0.0087    -4.628    -1.651    -1.544 -0.1000 -0.3624  0.9266
    16 H(1)   Bbb    -0.0033    -1.738    -0.620    -0.580  0.9849 -0.1681  0.0406
              Bcc     0.0119     6.366     2.271     2.123  0.1411  0.9167  0.3738
 
              Baa    -0.0083    -4.406    -1.572    -1.470  0.7746  0.5806  0.2509
    17 H(1)   Bbb    -0.0059    -3.159    -1.127    -1.054 -0.4827  0.2864  0.8276
              Bcc     0.0142     7.565     2.699     2.523 -0.4087  0.7622 -0.5021
 
              Baa    -0.0087    -4.628    -1.651    -1.544  0.1001 -0.3623  0.9267
    18 H(1)   Bbb    -0.0033    -1.738    -0.620    -0.580  0.9849  0.1681 -0.0407
              Bcc     0.0119     6.365     2.271     2.123 -0.1410  0.9168  0.3737
 
              Baa    -0.0079    -4.231    -1.510    -1.411 -0.0184 -0.4515  0.8921
    19 H(1)   Bbb    -0.0061    -3.237    -1.155    -1.080  0.4636  0.7866  0.4077
              Bcc     0.0140     7.467     2.665     2.491  0.8858 -0.4211 -0.1949
 

 ---------------------------------------------------------------------------------

 No NMR shielding tensors so no spin-rotation constants.
 Leave Link  601 at Thu Jan 22 16:35:12 2026, MaxMem=  1610612736 cpu:               1.0 elap:               0.2
 (Enter /leonardo/prod/opt/applications/g16/c02/binary/g16/l9999.exe)
 Unable to Open any file for archive entry.
 1\1\GINC-LRDN4915\FOpt\UM062X\def2SVP\C7H10N2(1+,2)\MORZA000\22-Jan-20
 26\0\\#p opt M062X def2SVP empiricaldispersion=GD3 SCRF(solvent=water)
 \\titolo\\1,2\C,0.0588849627,0.1346446985,0.0071748596\C,-0.0190011902
 ,-0.559206119,1.2426102661\C,-0.0066589188,-0.6250866668,-1.1896090649
 \C,-0.1468623826,-1.9399237078,1.2106161942\H,0.0479407712,-0.04699618
 43,2.2000009653\N,0.1926127452,1.4898967373,-0.0288570079\C,-0.1507879
 248,-2.0005540354,-1.0843298089\H,0.0227870689,-0.1607829921,-2.172968
 2019\N,-0.2159782484,-2.6506232587,0.0812297992\H,-0.1943074452,-2.496
 8901519,2.1490122685\C,0.0604120646,2.2989476307,1.1729017113\C,0.4740
 640076,2.1931653703,-1.2708029198\H,-0.2179098508,-2.60465245,-1.99185
 94212\H,1.0204734106,2.2982926315,1.7141037689\H,-0.1806552472,3.32354
 1806,0.8760264\H,-0.7298753845,1.9027568101,1.8171603469\H,-0.47045778
 4,2.3518375983,-1.8160775914\H,1.16816786,1.6167766746,-1.8893386887\H
 ,0.9124058625,3.1649983437,-1.0269938807\\Version=ES64L-G16RevC.02\Sta
 te=2-A\HF=-381.5912669\S2=0.778953\S2-1=0.\S2A=0.750557\RMSD=9.613e-09
 \RMSF=2.509e-05\Dipole=0.2917762,2.9566757,-0.0786119\Quadrupole=-8.18
 96357,3.4234375,4.7661982,1.1430981,-0.5150165,0.0835702\PG=C01 [X(C7H
 10N2)]\\@
 The archive entry for this job was punched.


 ANYONE WHO IS NOT SHOCKED BY QUANTUM THEORY HAS
 NOT UNDERSTOOD IT. -- NIELS BOHR(1885-1962)
 Job cpu time:       0 days  0 hours 56 minutes 34.1 seconds.
 Elapsed time:       0 days  0 hours  5 minutes 42.8 seconds.
 File lengths (MBytes):  RWF=    109 Int=      0 D2E=      0 Chk=      7 Scr=      1
 Normal termination of Gaussian 16 at Thu Jan 22 16:35:13 2026.
